No,Sp,Species,Survival,num_seeds,Block,Pot,Pot,Raintype,Density,Composition,Culture,n_BIPI,n_OPCO,n_PHAN,n_DAAE,n_POHY,n_PRCL,n_AGCO,n_LUHY
WD4-8EG-G4,G,AGCO,1,493.8,WD4,8EG,WD4_8EG,WD,8,EG,Co,0,0,0,0,4,0,3,0
WD4-8FG-G1,G,AGCO,1,0,WD4,8FG,WD4_8FG,WD,8,FG,Co,0,0,0,0,0,4,3,0
WD4-8FG-G2,G,AGCO,1,0,WD4,8FG,WD4_8FG,WD,8,FG,Co,0,0,0,0,0,4,3,0
WD4-8FG-G3,G,AGCO,1,0,WD4,8FG,WD4_8FG,WD,8,FG,Co,0,0,0,0,0,4,3,0
WD4-8FG-G4,G,AGCO,1,411.5,WD4,8FG,WD4_8FG,WD,8,FG,Co,0,0,0,0,0,4,3,0
WD4-8GH-G1,G,AGCO,1,0,WD4,8GH,WD4_8GH,WD,8,GH,Co,0,0,0,0,0,0,3,4
WD4-8GH-G2,G,AGCO,1,0,WD4,8GH,WD4_8GH,WD,8,GH,Co,0,0,0,0,0,0,3,4
WD4-8GH-G3,G,AGCO,1,0,WD4,8GH,WD4_8GH,WD,8,GH,Co,0,0,0,0,0,0,3,4
WD4-8GH-G4,G,AGCO,1,0,WD4,8GH,WD4_8GH,WD,8,GH,Co,0,0,0,0,0,0,3,4
DW3-2A-A1,A,BIPI,1,0,DW3,2A,DW3_2A,DW,2,A,Mono,1,0,0,0,0,0,0,0
DW3-2A-A2,A,BIPI,1,0,DW3,2A,DW3_2A,DW,2,A,Mono,1,0,0,0,0,0,0,0
DW3-2G-G1,G,AGCO,1,1316.8,DW3,2G,DW3_2G,DW,2,G,Mono,0,0,0,0,0,0,1,0
DW3-2G-G2,G,AGCO,1,576.1,DW3,2G,DW3_2G,DW,2,G,Mono,0,0,0,0,0,0,1,0
DW3-2AB-A,A,BIPI,1,152.1,DW3,2AB,DW3_2AB,DW,2,AB,Co,0,1,0,0,0,0,0,0
DW3-2AC-A,A,BIPI,1,0,DW3,2AC,DW3_2AC,DW,2,AC,Co,0,0,1,0,0,0,0,0
DW3-2AD-A,A,BIPI,1,0,DW3,2AD,DW3_2AD,DW,2,AD,Co,0,0,0,1,0,0,0,0
DW3-2AE-A,A,BIPI,1,912.6,DW3,2AE,DW3_2AE,DW,2,AE,Co,0,0,0,0,1,0,0,0
DW3-2AH2-A,A,BIPI,1,0,DW3,2AH2,DW3_2AH2,DW,2,AH,Co,0,0,0,0,0,0,0,1
DW3-2AG-A,A,BIPI,1,304.2,DW3,2AG,DW3_2AG,DW,2,AG,Co,0,0,0,0,0,0,1,0
DW3-2AG-G,G,AGCO,1,329.2,DW3,2AG,DW3_2AG,DW,2,AG,Co,1,0,0,0,0,0,0,0
DW3-2AH-A,A,BIPI,1,0,DW3,2AH,DW3_2AH,DW,2,AH,Co,0,0,0,0,0,0,0,1
DW3-2BG-G,G,AGCO,1,493.8,DW3,2BG,DW3_2BG,DW,2,BG,Co,0,1,0,0,0,0,0,0
DW3-2CG-G,G,AGCO,1,411.5,DW3,2CG,DW3_2CG,DW,2,CG,Co,0,0,1,0,0,0,0,0
DW3-2DG-G,G,AGCO,1,0,DW3,2DG,DW3_2DG,DW,2,DG,Co,0,0,0,1,0,0,0,0
DW3-2EG-G,G,AGCO,1,411.5,DW3,2EG,DW3_2EG,DW,2,EG,Co,0,0,0,0,1,0,0,0
DW3-2FG-G,G,AGCO,1,0,DW3,2FG,DW3_2FG,DW,2,FG,Co,0,0,0,0,0,1,0,0
DW3-2GH-G,G,AGCO,1,0,DW3,2GH,DW3_2GH,DW,2,GH,Co,0,0,0,0,0,0,0,1
DW3-4A-A1,A,BIPI,1,0,DW3,4A,DW3_4A,DW,4,A,Mono,3,0,0,0,0,0,0,0
DW3-4A-A2,A,BIPI,1,0,DW3,4A,DW3_4A,DW,4,A,Mono,3,0,0,0,0,0,0,0
DW3-4A-A3,A,BIPI,1,0,DW3,4A,DW3_4A,DW,4,A,Mono,3,0,0,0,0,0,0,0
DW3-4A-A4,A,BIPI,1,0,DW3,4A,DW3_4A,DW,4,A,Mono,3,0,0,0,0,0,0,0
DW3-4G-G1,G,AGCO,1,329.2,DW3,4G,DW3_4G,DW,4,G,Mono,0,0,0,0,0,0,3,0
DW3-4G-G2,G,AGCO,1,905.3,DW3,4G,DW3_4G,DW,4,G,Mono,0,0,0,0,0,0,3,0
DW3-4G-G3,G,AGCO,1,493.8,DW3,4G,DW3_4G,DW,4,G,Mono,0,0,0,0,0,0,3,0
DW3-4G-G4,G,AGCO,1,658.4,DW3,4G,DW3_4G,DW,4,G,Mono,0,0,0,0,0,0,3,0
DW3-4AB-A1,A,BIPI,1,0,DW3,4AB,DW3_4AB,DW,4,AB,Co,1,2,0,0,0,0,0,0
DW3-4AB-A2,A,BIPI,1,253.5,DW3,4AB,DW3_4AB,DW,4,AB,Co,1,2,0,0,0,0,0,0
DW3-4AC-A1,A,BIPI,1,50.7,DW3,4AC,DW3_4AC,DW,4,AC,Co,1,0,2,0,0,0,0,0
DW3-4AC-A2,A,BIPI,1,0,DW3,4AC,DW3_4AC,DW,4,AC,Co,1,0,2,0,0,0,0,0
DW3-4AD-A1,A,BIPI,1,202.8,DW3,4AD,DW3_4AD,DW,4,AD,Co,1,0,0,2,0,0,0,0
DW3-4AD-A2,A,BIPI,0,0,DW3,4AD,DW3_4AD,DW,4,AD,Co,1,0,0,2,0,0,0,0
DW3-4AE-A1,A,BIPI,1,253.5,DW3,4AE,DW3_4AE,DW,4,AE,Co,1,0,0,0,2,0,0,0
DW3-4AE-A2,A,BIPI,1,0,DW3,4AE,DW3_4AE,DW,4,AE,Co,1,0,0,0,2,0,0,0
DW3-4AF-A1,A,BIPI,1,0,DW3,4AF,DW3_4AF,DW,4,AF,Co,1,0,0,0,0,2,0,0
DW3-4AF-A2,A,BIPI,1,152.1,DW3,4AF,DW3_4AF,DW,4,AF,Co,1,0,0,0,0,2,0,0
DW3-4AG-A1,A,BIPI,1,0,DW3,4AG,DW3_4AG,DW,4,AG,Co,1,0,0,0,0,0,2,0
DW3-4AG-A2,A,BIPI,1,0,DW3,4AG,DW3_4AG,DW,4,AG,Co,1,0,0,0,0,0,2,0
DW3-4AG-G1,G,AGCO,1,329.2,DW3,4AG,DW3_4AG,DW,4,AG,Co,2,0,0,0,0,0,1,0
DW3-4AG-G2,G,AGCO,1,0,DW3,4AG,DW3_4AG,DW,4,AG,Co,2,0,0,0,0,0,1,0
DW3-4AH-A1,A,BIPI,1,0,DW3,4AH,DW3_4AH,DW,4,AH,Co,1,0,0,0,0,0,0,2
DW3-4AH-A2,A,BIPI,1,0,DW3,4AH,DW3_4AH,DW,4,AH,Co,1,0,0,0,0,0,0,2
DW3-4BG-G1,G,AGCO,1,1152.2,DW3,4BG,DW3_4BG,DW,4,BG,Co,0,2,0,0,0,0,1,0
DW3-4BG-G2,G,AGCO,1,329.2,DW3,4BG,DW3_4BG,DW,4,BG,Co,0,2,0,0,0,0,1,0
DW3-4CG-G1,G,AGCO,0,0,DW3,4CG,DW3_4CG,DW,4,CG,Co,0,0,2,0,0,0,1,0
DW3-4CG-G2,G,AGCO,0,0,DW3,4CG,DW3_4CG,DW,4,CG,Co,0,0,2,0,0,0,1,0
DW3-4DG-G1,G,AGCO,1,164.6,DW3,4DG,DW3_4DG,DW,4,DG,Co,0,0,0,2,0,0,1,0
DW3-4DG-G2,G,AGCO,0,0,DW3,4DG,DW3_4DG,DW,4,DG,Co,0,0,0,2,0,0,1,0
DW3-4EG-G1,G,AGCO,1,658.4,DW3,4EG,DW3_4EG,DW,4,EG,Co,0,0,0,0,2,0,1,0
DW3-4EG-G2,G,AGCO,1,1234.5,DW3,4EG,DW3_4EG,DW,4,EG,Co,0,0,0,0,2,0,1,0
DW3-4FG-G1,G,AGCO,1,0,DW3,4FG,DW3_4FG,DW,4,FG,Co,0,0,0,0,0,2,1,0
DW3-4FG-G2,G,AGCO,1,0,DW3,4FG,DW3_4FG,DW,4,FG,Co,0,0,0,0,0,2,1,0
DW3-4GH-G1,G,AGCO,1,0,DW3,4GH,DW3_4GH,DW,4,GH,Co,0,0,0,0,0,0,1,2
DW3-4GH-G2,G,AGCO,1,0,DW3,4GH,DW3_4GH,DW,4,GH,Co,0,0,0,0,0,0,1,2
DW3-8A-A1,A,BIPI,1,0,DW3,8A,DW3_8A,DW,8,A,Mono,7,0,0,0,0,0,0,0
DW3-8A-A2,A,BIPI,1,0,DW3,8A,DW3_8A,DW,8,A,Mono,7,0,0,0,0,0,0,0
DW3-8A-A3,A,BIPI,1,0,DW3,8A,DW3_8A,DW,8,A,Mono,7,0,0,0,0,0,0,0
DW3-8A-A4,A,BIPI,1,0,DW3,8A,DW3_8A,DW,8,A,Mono,7,0,0,0,0,0,0,0
DW3-8A-A5,A,BIPI,1,0,DW3,8A,DW3_8A,DW,8,A,Mono,7,0,0,0,0,0,0,0
DW3-8A-A6,A,BIPI,1,0,DW3,8A,DW3_8A,DW,8,A,Mono,7,0,0,0,0,0,0,0
DW3-8A-A7,A,BIPI,1,0,DW3,8A,DW3_8A,DW,8,A,Mono,7,0,0,0,0,0,0,0
DW3-8A-A8,A,BIPI,1,0,DW3,8A,DW3_8A,DW,8,A,Mono,7,0,0,0,0,0,0,0
DW3-8G-G1,G,AGCO,1,0,DW3,8G,DW3_8G,DW,8,G,Mono,0,0,0,0,0,0,7,0
DW3-8G-G2,G,AGCO,1,0,DW3,8G,DW3_8G,DW,8,G,Mono,0,0,0,0,0,0,7,0
DW3-8G-G3,G,AGCO,1,0,DW3,8G,DW3_8G,DW,8,G,Mono,0,0,0,0,0,0,7,0
DW3-8G-G4,G,AGCO,1,0,DW3,8G,DW3_8G,DW,8,G,Mono,0,0,0,0,0,0,7,0
DW3-8G-G5,G,AGCO,1,0,DW3,8G,DW3_8G,DW,8,G,Mono,0,0,0,0,0,0,7,0
DW3-8G-G6,G,AGCO,1,0,DW3,8G,DW3_8G,DW,8,G,Mono,0,0,0,0,0,0,7,0
DW3-8G-G7,G,AGCO,1,0,DW3,8G,DW3_8G,DW,8,G,Mono,0,0,0,0,0,0,7,0
DW3-8G-G8,G,AGCO,1,0,DW3,8G,DW3_8G,DW,8,G,Mono,0,0,0,0,0,0,7,0
DW3-8AB-A1,A,BIPI,1,253.5,DW3,8AB,DW3_8AB,DW,8,AB,Co,3,4,0,0,0,0,0,0
DW3-8AB-A2,A,BIPI,1,304.2,DW3,8AB,DW3_8AB,DW,8,AB,Co,3,4,0,0,0,0,0,0
DW3-8AB-A3,A,BIPI,1,304.2,DW3,8AB,DW3_8AB,DW,8,AB,Co,3,4,0,0,0,0,0,0
DW3-8AB-A4,A,BIPI,1,0,DW3,8AB,DW3_8AB,DW,8,AB,Co,3,4,0,0,0,0,0,0
DW3-8AC-A1,A,BIPI,1,101.4,DW3,8AC,DW3_8AC,DW,8,AC,Co,3,0,4,0,0,0,0,0
DW3-8AC-A2,A,BIPI,1,50.7,DW3,8AC,DW3_8AC,DW,8,AC,Co,3,0,4,0,0,0,0,0
DW3-8AC-A3,A,BIPI,1,152.1,DW3,8AC,DW3_8AC,DW,8,AC,Co,3,0,4,0,0,0,0,0
DW3-8AC-A4,A,BIPI,1,0,DW3,8AC,DW3_8AC,DW,8,AC,Co,3,0,4,0,0,0,0,0
DW3-8AD-A1,A,BIPI,1,0,DW3,8AD,DW3_8AD,DW,8,AD,Co,3,0,0,4,0,0,0,0
DW3-8AD-A2,A,BIPI,1,101.4,DW3,8AD,DW3_8AD,DW,8,AD,Co,3,0,0,4,0,0,0,0
DW3-8AD-A3,A,BIPI,1,101.4,DW3,8AD,DW3_8AD,DW,8,AD,Co,3,0,0,4,0,0,0,0
DW3-8AD-A4,A,BIPI,1,101.4,DW3,8AD,DW3_8AD,DW,8,AD,Co,3,0,0,4,0,0,0,0
DW3-8AE-A1,A,BIPI,1,0,DW3,8AE,DW3_8AE,DW,8,AE,Co,3,0,0,0,4,0,0,0
DW3-8AE-A2,A,BIPI,1,354.9,DW3,8AE,DW3_8AE,DW,8,AE,Co,3,0,0,0,4,0,0,0
DW3-8AE-A3,A,BIPI,1,0,DW3,8AE,DW3_8AE,DW,8,AE,Co,3,0,0,0,4,0,0,0
DW3-8AE-A4,A,BIPI,1,0,DW3,8AE,DW3_8AE,DW,8,AE,Co,3,0,0,0,4,0,0,0
DW3-8AF-A1,A,BIPI,1,202.8,DW3,8AF,DW3_8AF,DW,8,AF,Co,3,0,0,0,0,4,0,0
DW3-8AF-A2,A,BIPI,1,50.7,DW3,8AF,DW3_8AF,DW,8,AF,Co,3,0,0,0,0,4,0,0
DW3-8AF-A3,A,BIPI,1,0,DW3,8AF,DW3_8AF,DW,8,AF,Co,3,0,0,0,0,4,0,0
DW3-8AF-A4,A,BIPI,1,0,DW3,8AF,DW3_8AF,DW,8,AF,Co,3,0,0,0,0,4,0,0
DW3-8AG-A1,A,BIPI,1,101.4,DW3,8AG,DW3_8AG,DW,8,AG,Co,3,0,0,0,0,0,4,0
DW3-8AG-A2,A,BIPI,1,0,DW3,8AG,DW3_8AG,DW,8,AG,Co,3,0,0,0,0,0,4,0
DW3-8AG-A3,A,BIPI,1,0,DW3,8AG,DW3_8AG,DW,8,AG,Co,3,0,0,0,0,0,4,0
DW3-8AG-A4,A,BIPI,1,0,DW3,8AG,DW3_8AG,DW,8,AG,Co,3,0,0,0,0,0,4,0
DW3-8AG-G1,G,AGCO,1,246.9,DW3,8AG,DW3_8AG,DW,8,AG,Co,4,0,0,0,0,0,3,0
DW3-8AG-G2,G,AGCO,1,329.2,DW3,8AG,DW3_8AG,DW,8,AG,Co,4,0,0,0,0,0,3,0
DW3-8AG-G3,G,AGCO,1,0,DW3,8AG,DW3_8AG,DW,8,AG,Co,4,0,0,0,0,0,3,0
DW3-8AG-G4,G,AGCO,0,0,DW3,8AG,DW3_8AG,DW,8,AG,Co,4,0,0,0,0,0,3,0
DW3-8AH-A1,A,BIPI,1,0,DW3,8AH,DW3_8AH,DW,8,AH,Co,3,0,0,0,0,0,0,4
DW3-8AH-A2,A,BIPI,1,152.1,DW3,8AH,DW3_8AH,DW,8,AH,Co,3,0,0,0,0,0,0,4
DW3-8AH-A3,A,BIPI,1,50.7,DW3,8AH,DW3_8AH,DW,8,AH,Co,3,0,0,0,0,0,0,4
DW3-8AH-A4,A,BIPI,1,0,DW3,8AH,DW3_8AH,DW,8,AH,Co,3,0,0,0,0,0,0,4
DW3-8BG-G1,G,AGCO,1,576.1,DW3,8BG,DW3_8BG,DW,8,BG,Co,0,4,0,0,0,0,3,0
DW3-8BG-G2,G,AGCO,0,0,DW3,8BG,DW3_8BG,DW,8,BG,Co,0,4,0,0,0,0,3,0
DW3-8BG-G3,G,AGCO,1,493.8,DW3,8BG,DW3_8BG,DW,8,BG,Co,0,4,0,0,0,0,3,0
DW3-8BG-G4,G,AGCO,1,164.6,DW3,8BG,DW3_8BG,DW,8,BG,Co,0,4,0,0,0,0,3,0
DW3-8CG-G1,G,AGCO,0,0,DW3,8CG,DW3_8CG,DW,8,CG,Co,0,0,4,0,0,0,3,0
DW3-8CG-G2,G,AGCO,1,987.6,DW3,8CG,DW3_8CG,DW,8,CG,Co,0,0,4,0,0,0,3,0
DW3-8CG-G3,G,AGCO,0,0,DW3,8CG,DW3_8CG,DW,8,CG,Co,0,0,4,0,0,0,3,0
DW3-8CG-G4,G,AGCO,0,0,DW3,8CG,DW3_8CG,DW,8,CG,Co,0,0,4,0,0,0,3,0
DW3-8DG-G1,G,AGCO,1,0,DW3,8DG,DW3_8DG,DW,8,DG,Co,0,0,0,4,0,0,3,0
DW3-8DG-G2,G,AGCO,0,0,DW3,8DG,DW3_8DG,DW,8,DG,Co,0,0,0,4,0,0,3,0
DW3-8DG-G3,G,AGCO,1,246.9,DW3,8DG,DW3_8DG,DW,8,DG,Co,0,0,0,4,0,0,3,0
DW3-8DG-G4,G,AGCO,0,0,DW3,8DG,DW3_8DG,DW,8,DG,Co,0,0,0,4,0,0,3,0
DW3-8EG-G1,G,AGCO,1,576.1,DW3,8EG,DW3_8EG,DW,8,EG,Co,0,0,0,0,4,0,3,0
DW3-8EG-G2,G,AGCO,0,0,DW3,8EG,DW3_8EG,DW,8,EG,Co,0,0,0,0,4,0,3,0
DW3-8EG-G3,G,AGCO,1,82.3,DW3,8EG,DW3_8EG,DW,8,EG,Co,0,0,0,0,4,0,3,0
DW3-8EG-G4,G,AGCO,0,0,DW3,8EG,DW3_8EG,DW,8,EG,Co,0,0,0,0,4,0,3,0
DW3-8FG-G1,G,AGCO,1,0,DW3,8FG,DW3_8FG,DW,8,FG,Co,0,0,0,0,0,4,3,0
DW3-8FG-G2,G,AGCO,1,576.1,DW3,8FG,DW3_8FG,DW,8,FG,Co,0,0,0,0,0,4,3,0
DW3-8FG-G3,G,AGCO,1,658.4,DW3,8FG,DW3_8FG,DW,8,FG,Co,0,0,0,0,0,4,3,0
DW3-8FG-G4,G,AGCO,0,0,DW3,8FG,DW3_8FG,DW,8,FG,Co,0,0,0,0,0,4,3,0
DW3-8GH-G1,G,AGCO,1,0,DW3,8GH,DW3_8GH,DW,8,GH,Co,0,0,0,0,0,0,3,4
DW3-8GH-G2,G,AGCO,1,0,DW3,8GH,DW3_8GH,DW,8,GH,Co,0,0,0,0,0,0,3,4
DW3-8GH-G3,G,AGCO,1,0,DW3,8GH,DW3_8GH,DW,8,GH,Co,0,0,0,0,0,0,3,4
DW3-8GH-G4,G,AGCO,0,0,DW3,8GH,DW3_8GH,DW,8,GH,Co,0,0,0,0,0,0,3,4
DW4-2A-A1,A,BIPI,1,304.2,DW4,2A,DW4_2A,DW,2,A,Mono,1,0,0,0,0,0,0,0
DW4-2A-A2,A,BIPI,1,253.5,DW4,2A,DW4_2A,DW,2,A,Mono,1,0,0,0,0,0,0,0
DW4-2G-G1,G,AGCO,1,905.3,DW4,2G,DW4_2G,DW,2,G,Mono,0,0,0,0,0,0,1,0
DW4-2G-G2,G,AGCO,1,246.9,DW4,2G,DW4_2G,DW,2,G,Mono,0,0,0,0,0,0,1,0
DW4-2AB-A,A,BIPI,1,304.2,DW4,2AB,DW4_2AB,DW,2,AB,Co,0,1,0,0,0,0,0,0
DW4-2AC-A,A,BIPI,1,50.7,DW4,2AC,DW4_2AC,DW,2,AC,Co,0,0,1,0,0,0,0,0
DW4-2AD-A,A,BIPI,1,0,DW4,2AD,DW4_2AD,DW,2,AD,Co,0,0,0,1,0,0,0,0
DW4-2AE-A,A,BIPI,1,1875.9,DW4,2AE,DW4_2AE,DW,2,AE,Co,0,0,0,0,1,0,0,0
DW4-2AF-A,A,BIPI,1,0,DW4,2AF,DW4_2AF,DW,2,AF,Co,0,0,0,0,0,1,0,0
DW4-2AG-A,A,BIPI,1,152.1,DW4,2AG,DW4_2AG,DW,2,AG,Co,0,0,0,0,0,0,1,0
DW4-2AG-G,G,AGCO,1,0,DW4,2AG,DW4_2AG,DW,2,AG,Co,1,0,0,0,0,0,0,0
DW4-2AH-A,A,BIPI,1,0,DW4,2AH,DW4_2AH,DW,2,AH,Co,0,0,0,0,0,0,0,1
DW4-2BG-G,G,AGCO,1,1563.7,DW4,2BG,DW4_2BG,DW,2,BG,Co,0,1,0,0,0,0,0,0
DW4-2CG-G,G,AGCO,1,0,DW4,2CG,DW4_2CG,DW,2,CG,Co,0,0,1,0,0,0,0,0
DW4-2DG-G,G,AGCO,1,0,DW4,2DG,DW4_2DG,DW,2,DG,Co,0,0,0,1,0,0,0,0
DW4-2EG-G,G,AGCO,0,0,DW4,2EG,DW4_2EG,DW,2,EG,Co,0,0,0,0,1,0,0,0
DW4-2FG-G,G,AGCO,1,823,DW4,2FG,DW4_2FG,DW,2,FG,Co,0,0,0,0,0,1,0,0
DW4-2GH-G,G,AGCO,1,0,DW4,2GH,DW4_2GH,DW,2,GH,Co,0,0,0,0,0,0,0,1
DW4-4A-A1,A,BIPI,1,0,DW4,4A,DW4_4A,DW,4,A,Mono,3,0,0,0,0,0,0,0
DW4-4A-A2,A,BIPI,1,50.7,DW4,4A,DW4_4A,DW,4,A,Mono,3,0,0,0,0,0,0,0
DW4-4A-A3,A,BIPI,1,0,DW4,4A,DW4_4A,DW,4,A,Mono,3,0,0,0,0,0,0,0
DW4-4A-A4,A,BIPI,1,50.7,DW4,4A,DW4_4A,DW,4,A,Mono,3,0,0,0,0,0,0,0
DW4-4G-G1,G,AGCO,1,329.2,DW4,4G,DW4_4G,DW,4,G,Mono,0,0,0,0,0,0,3,0
DW4-4G-G2,G,AGCO,1,0,DW4,4G,DW4_4G,DW,4,G,Mono,0,0,0,0,0,0,3,0
DW4-4G-G3,G,AGCO,1,0,DW4,4G,DW4_4G,DW,4,G,Mono,0,0,0,0,0,0,3,0
DW4-4G-G4,G,AGCO,0,0,DW4,4G,DW4_4G,DW,4,G,Mono,0,0,0,0,0,0,3,0
DW4-4AB-A1,A,BIPI,1,152.1,DW4,4AB,DW4_4AB,DW,4,AB,Co,1,2,0,0,0,0,0,0
DW4-4AB-A2,A,BIPI,1,0,DW4,4AB,DW4_4AB,DW,4,AB,Co,1,2,0,0,0,0,0,0
DW4-4AC-A1,A,BIPI,1,304.2,DW4,4AC,DW4_4AC,DW,4,AC,Co,1,0,2,0,0,0,0,0
DW4-4AC-A2,A,BIPI,1,0,DW4,4AC,DW4_4AC,DW,4,AC,Co,1,0,2,0,0,0,0,0
DW4-4AD-A1,A,BIPI,1,456.3,DW4,4AD,DW4_4AD,DW,4,AD,Co,1,0,0,2,0,0,0,0
DW4-4AD-A2,A,BIPI,1,557.7,DW4,4AD,DW4_4AD,DW,4,AD,Co,1,0,0,2,0,0,0,0
DW4-4AE-A1,A,BIPI,1,253.5,DW4,4AE,DW4_4AE,DW,4,AE,Co,1,0,0,0,2,0,0,0
DW4-4AE-A2,A,BIPI,1,405.6,DW4,4AE,DW4_4AE,DW,4,AE,Co,1,0,0,0,2,0,0,0
DW4-4AF-A1,A,BIPI,1,202.8,DW4,4AF,DW4_4AF,DW,4,AF,Co,1,0,0,0,0,2,0,0
DW4-4AF-A2,A,BIPI,1,253.5,DW4,4AF,DW4_4AF,DW,4,AF,Co,1,0,0,0,0,2,0,0
DW4-4AG-A1,A,BIPI,1,253.5,DW4,4AG,DW4_4AG,DW,4,AG,Co,1,0,0,0,0,0,2,0
DW4-4AG-A2,A,BIPI,1,0,DW4,4AG,DW4_4AG,DW,4,AG,Co,1,0,0,0,0,0,2,0
DW4-4AG-G1,G,AGCO,1,0,DW4,4AG,DW4_4AG,DW,4,AG,Co,2,0,0,0,0,0,1,0
DW4-4AG-G2,G,AGCO,1,246.9,DW4,4AG,DW4_4AG,DW,4,AG,Co,2,0,0,0,0,0,1,0
DW4-4AH-A1,A,BIPI,1,0,DW4,4AH,DW4_4AH,DW,4,AH,Co,1,0,0,0,0,0,0,2
DW4-4AH-A2,A,BIPI,1,0,DW4,4AH,DW4_4AH,DW,4,AH,Co,1,0,0,0,0,0,0,2
DW4-4BG-G1,G,AGCO,1,1399.1,DW4,4BG,DW4_4BG,DW,4,BG,Co,0,2,0,0,0,0,1,0
DW4-4BG-G2,G,AGCO,1,905.3,DW4,4BG,DW4_4BG,DW,4,BG,Co,0,2,0,0,0,0,1,0
DW4-4CG-G1,G,AGCO,1,0,DW4,4CG,DW4_4CG,DW,4,CG,Co,0,0,2,0,0,0,1,0
DW4-4CG-G2,G,AGCO,1,740.7,DW4,4CG,DW4_4CG,DW,4,CG,Co,0,0,2,0,0,0,1,0
DW4-4DG-G1,G,AGCO,1,0,DW4,4DG,DW4_4DG,DW,4,DG,Co,0,0,0,2,0,0,1,0
DW4-4DG-G2,G,AGCO,1,1646,DW4,4DG,DW4_4DG,DW,4,DG,Co,0,0,0,2,0,0,1,0
DW4-4EG-G1,G,AGCO,0,0,DW4,4EG,DW4_4EG,DW,4,EG,Co,0,0,0,0,2,0,1,0
DW4-4EG-G2,G,AGCO,0,0,DW4,4EG,DW4_4EG,DW,4,EG,Co,0,0,0,0,2,0,1,0
DW4-4FG-G1,G,AGCO,1,0,DW4,4FG,DW4_4FG,DW,4,FG,Co,0,0,0,0,0,2,1,0
DW4-4FG-G2,G,AGCO,1,0,DW4,4FG,DW4_4FG,DW,4,FG,Co,0,0,0,0,0,2,1,0
DW4-4GH-G1,G,AGCO,0,0,DW4,4GH,DW4_4GH,DW,4,GH,Co,0,0,0,0,0,0,1,2
DW4-4GH-G2,G,AGCO,0,0,DW4,4GH,DW4_4GH,DW,4,GH,Co,0,0,0,0,0,0,1,2
DW4-8A-A1,A,BIPI,1,253.5,DW4,8A,DW4_8A,DW,8,A,Mono,7,0,0,0,0,0,0,0
DW4-8A-A2,A,BIPI,1,0,DW4,8A,DW4_8A,DW,8,A,Mono,7,0,0,0,0,0,0,0
DW4-8A-A3,A,BIPI,1,0,DW4,8A,DW4_8A,DW,8,A,Mono,7,0,0,0,0,0,0,0
DW4-8A-A4,A,BIPI,1,0,DW4,8A,DW4_8A,DW,8,A,Mono,7,0,0,0,0,0,0,0
DW4-8A-A5,A,BIPI,1,0,DW4,8A,DW4_8A,DW,8,A,Mono,7,0,0,0,0,0,0,0
DW4-8A-A6,A,BIPI,1,405.6,DW4,8A,DW4_8A,DW,8,A,Mono,7,0,0,0,0,0,0,0
DW4-8A-A7,A,BIPI,1,0,DW4,8A,DW4_8A,DW,8,A,Mono,7,0,0,0,0,0,0,0
DW4-8A-A8,A,BIPI,1,0,DW4,8A,DW4_8A,DW,8,A,Mono,7,0,0,0,0,0,0,0
DW4-8G-G1,G,AGCO,1,82.3,DW4,8G,DW4_8G,DW,8,G,Mono,0,0,0,0,0,0,7,0
DW4-8G-G2,G,AGCO,0,0,DW4,8G,DW4_8G,DW,8,G,Mono,0,0,0,0,0,0,7,0
DW4-8G-G3,G,AGCO,0,0,DW4,8G,DW4_8G,DW,8,G,Mono,0,0,0,0,0,0,7,0
DW4-8G-G4,G,AGCO,0,0,DW4,8G,DW4_8G,DW,8,G,Mono,0,0,0,0,0,0,7,0
DW4-8G-G5,G,AGCO,0,0,DW4,8G,DW4_8G,DW,8,G,Mono,0,0,0,0,0,0,7,0
DW4-8G-G6,G,AGCO,0,0,DW4,8G,DW4_8G,DW,8,G,Mono,0,0,0,0,0,0,7,0
DW4-8G-G7,G,AGCO,0,0,DW4,8G,DW4_8G,DW,8,G,Mono,0,0,0,0,0,0,7,0
DW4-8G-G8,G,AGCO,1,329.2,DW4,8G,DW4_8G,DW,8,G,Mono,0,0,0,0,0,0,7,0
DW4-8AB-A1,A,BIPI,1,0,DW4,8AB,DW4_8AB,DW,8,AB,Co,3,4,0,0,0,0,0,0
DW4-8AB-A2,A,BIPI,0,0,DW4,8AB,DW4_8AB,DW,8,AB,Co,3,4,0,0,0,0,0,0
DW4-8AB-A3,A,BIPI,0,0,DW4,8AB,DW4_8AB,DW,8,AB,Co,3,4,0,0,0,0,0,0
DW4-8AB-A4,A,BIPI,0,0,DW4,8AB,DW4_8AB,DW,8,AB,Co,3,4,0,0,0,0,0,0
DW4-8AC-A1,A,BIPI,1,50.7,DW4,8AC,DW4_8AC,DW,8,AC,Co,3,0,4,0,0,0,0,0
DW4-8AC-A2,A,BIPI,0,0,DW4,8AC,DW4_8AC,DW,8,AC,Co,3,0,4,0,0,0,0,0
DW4-8AC-A3,A,BIPI,1,0,DW4,8AC,DW4_8AC,DW,8,AC,Co,3,0,4,0,0,0,0,0
DW4-8AC-A4,A,BIPI,1,0,DW4,8AC,DW4_8AC,DW,8,AC,Co,3,0,4,0,0,0,0,0
DW4-8AD-A1,A,BIPI,1,152.1,DW4,8AD,DW4_8AD,DW,8,AD,Co,3,0,0,4,0,0,0,0
DW4-8AD-A2,A,BIPI,1,0,DW4,8AD,DW4_8AD,DW,8,AD,Co,3,0,0,4,0,0,0,0
DW4-8AD-A3,A,BIPI,1,101.4,DW4,8AD,DW4_8AD,DW,8,AD,Co,3,0,0,4,0,0,0,0
DW4-8AD-A4,A,BIPI,1,405.6,DW4,8AD,DW4_8AD,DW,8,AD,Co,3,0,0,4,0,0,0,0
DW4-8AE-A1,A,BIPI,1,0,DW4,8AE,DW4_8AE,DW,8,AE,Co,3,0,0,0,4,0,0,0
DW4-8AE-A2,A,BIPI,0,0,DW4,8AE,DW4_8AE,DW,8,AE,Co,3,0,0,0,4,0,0,0
DW4-8AE-A3,A,BIPI,1,304.2,DW4,8AE,DW4_8AE,DW,8,AE,Co,3,0,0,0,4,0,0,0
DW4-8AE-A4,A,BIPI,1,0,DW4,8AE,DW4_8AE,DW,8,AE,Co,3,0,0,0,4,0,0,0
DW4-8AF-A1,A,BIPI,1,0,DW4,8AF,DW4_8AF,DW,8,AF,Co,3,0,0,0,0,4,0,0
DW4-8AF-A2,A,BIPI,1,0,DW4,8AF,DW4_8AF,DW,8,AF,Co,3,0,0,0,0,4,0,0
DW4-8AF-A3,A,BIPI,1,0,DW4,8AF,DW4_8AF,DW,8,AF,Co,3,0,0,0,0,4,0,0
DW4-8AF-A4,A,BIPI,1,0,DW4,8AF,DW4_8AF,DW,8,AF,Co,3,0,0,0,0,4,0,0
DW4-8AG-A1,A,BIPI,0,0,DW4,8AG,DW4_8AG,DW,8,AG,Co,3,0,0,0,0,0,4,0
DW4-8AG-A2,A,BIPI,0,0,DW4,8AG,DW4_8AG,DW,8,AG,Co,3,0,0,0,0,0,4,0
DW4-8AG-A3,A,BIPI,1,0,DW4,8AG,DW4_8AG,DW,8,AG,Co,3,0,0,0,0,0,4,0
DW4-8AG-A4,A,BIPI,1,0,DW4,8AG,DW4_8AG,DW,8,AG,Co,3,0,0,0,0,0,4,0
DW4-8AG-G1,G,AGCO,1,82.3,DW4,8AG,DW4_8AG,DW,8,AG,Co,4,0,0,0,0,0,3,0
DW4-8AG-G2,G,AGCO,0,0,DW4,8AG,DW4_8AG,DW,8,AG,Co,4,0,0,0,0,0,3,0
DW4-8AG-G3,G,AGCO,0,0,DW4,8AG,DW4_8AG,DW,8,AG,Co,4,0,0,0,0,0,3,0
DW4-8AG-G4,G,AGCO,0,0,DW4,8AG,DW4_8AG,DW,8,AG,Co,4,0,0,0,0,0,3,0
DW4-8AH-A1,A,BIPI,1,0,DW4,8AH,DW4_8AH,DW,8,AH,Co,3,0,0,0,0,0,0,4
DW4-8AH-A2,A,BIPI,1,0,DW4,8AH,DW4_8AH,DW,8,AH,Co,3,0,0,0,0,0,0,4
DW4-8AH-A3,A,BIPI,1,0,DW4,8AH,DW4_8AH,DW,8,AH,Co,3,0,0,0,0,0,0,4
DW4-8AH-A4,A,BIPI,1,0,DW4,8AH,DW4_8AH,DW,8,AH,Co,3,0,0,0,0,0,0,4
DW4-8BG-G1,G,AGCO,0,0,DW4,8BG,DW4_8BG,DW,8,BG,Co,0,4,0,0,0,0,3,0
DW4-8BG-G2,G,AGCO,1,0,DW4,8BG,DW4_8BG,DW,8,BG,Co,0,4,0,0,0,0,3,0
DW4-8BG-G3,G,AGCO,0,0,DW4,8BG,DW4_8BG,DW,8,BG,Co,0,4,0,0,0,0,3,0
DW4-8BG-G4,G,AGCO,1,0,DW4,8BG,DW4_8BG,DW,8,BG,Co,0,4,0,0,0,0,3,0
DW4-8CG-G1,G,AGCO,1,0,DW4,8CG,DW4_8CG,DW,8,CG,Co,0,0,4,0,0,0,3,0
DW4-8CG-G2,G,AGCO,1,0,DW4,8CG,DW4_8CG,DW,8,CG,Co,0,0,4,0,0,0,3,0
DW4-8CG-G3,G,AGCO,1,0,DW4,8CG,DW4_8CG,DW,8,CG,Co,0,0,4,0,0,0,3,0
DW4-8CG-G4,G,AGCO,1,0,DW4,8CG,DW4_8CG,DW,8,CG,Co,0,0,4,0,0,0,3,0
DW4-8DG-G1,G,AGCO,0,0,DW4,8DG,DW4_8DG,DW,8,DG,Co,0,0,0,4,0,0,3,0
DW4-8DG-G2,G,AGCO,1,0,DW4,8DG,DW4_8DG,DW,8,DG,Co,0,0,0,4,0,0,3,0
DW4-8DG-G3,G,AGCO,1,0,DW4,8DG,DW4_8DG,DW,8,DG,Co,0,0,0,4,0,0,3,0
DW4-8DG-G4,G,AGCO,1,576.1,DW4,8DG,DW4_8DG,DW,8,DG,Co,0,0,0,4,0,0,3,0
DW4-8EG-G1,G,AGCO,1,329.2,DW4,8EG,DW4_8EG,DW,8,EG,Co,0,0,0,0,4,0,3,0
DW4-8EG-G2,G,AGCO,1,164.6,DW4,8EG,DW4_8EG,DW,8,EG,Co,0,0,0,0,4,0,3,0
DW4-8EG-G3,G,AGCO,1,246.9,DW4,8EG,DW4_8EG,DW,8,EG,Co,0,0,0,0,4,0,3,0
DW4-8EG-G4,G,AGCO,1,329.2,DW4,8EG,DW4_8EG,DW,8,EG,Co,0,0,0,0,4,0,3,0
DW4-8FG-G1,G,AGCO,1,493.8,DW4,8FG,DW4_8FG,DW,8,FG,Co,0,0,0,0,0,4,3,0
DW4-8FG-G2,G,AGCO,1,0,DW4,8FG,DW4_8FG,DW,8,FG,Co,0,0,0,0,0,4,3,0
DW4-8FG-G3,G,AGCO,1,0,DW4,8FG,DW4_8FG,DW,8,FG,Co,0,0,0,0,0,4,3,0
DW4-8FG-G4,G,AGCO,1,0,DW4,8FG,DW4_8FG,DW,8,FG,Co,0,0,0,0,0,4,3,0
DW4-8GH-G1,G,AGCO,0,0,DW4,8GH,DW4_8GH,DW,8,GH,Co,0,0,0,0,0,0,3,4
DW4-8GH-G2,G,AGCO,0,0,DW4,8GH,DW4_8GH,DW,8,GH,Co,0,0,0,0,0,0,3,4
DW4-8GH-G3,G,AGCO,0,0,DW4,8GH,DW4_8GH,DW,8,GH,Co,0,0,0,0,0,0,3,4
DW4-8GH-G4,G,AGCO,1,0,DW4,8GH,DW4_8GH,DW,8,GH,Co,0,0,0,0,0,0,3,4
DD3-2A-A1,A,BIPI,1,456.3,DD3,2A,DD3_2A,DD,2,A,Mono,1,0,0,0,0,0,0,0
DD3-2A-A2,A,BIPI,1,101.4,DD3,2A,DD3_2A,DD,2,A,Mono,1,0,0,0,0,0,0,0
DD3-2G-G1,G,AGCO,1,576.1,DD3,2G,DD3_2G,DD,2,G,Mono,0,0,0,0,0,0,1,0
DD3-2G-G2,G,AGCO,1,740.7,DD3,2G,DD3_2G,DD,2,G,Mono,0,0,0,0,0,0,1,0
DD3-2AB-A,A,BIPI,1,0,DD3,2AB,DD3_2AB,DD,2,AB,Co,0,1,0,0,0,0,0,0
DD3-2AC-A,A,BIPI,1,507,DD3,2AC,DD3_2AC,DD,2,AC,Co,0,0,1,0,0,0,0,0
DD3-2AD-A,A,BIPI,1,507,DD3,2AD,DD3_2AD,DD,2,AD,Co,0,0,0,1,0,0,0,0
DD3-2AE-A,A,BIPI,1,0,DD3,2AE,DD3_2AE,DD,2,AE,Co,0,0,0,0,1,0,0,0
DD3-2AF-A,A,BIPI,1,202.8,DD3,2AF,DD3_2AF,DD,2,AF,Co,0,0,0,0,0,1,0,0
DD3-2AG-A,A,BIPI,1,0,DD3,2AG,DD3_2AG,DD,2,AG,Co,0,0,0,0,0,0,1,0
DD3-2AG-G,G,AGCO,1,0,DD3,2AG,DD3_2AG,DD,2,AG,Co,1,0,0,0,0,0,0,0
DD3-2AH-A,A,BIPI,1,354.9,DD3,2AH,DD3_2AH,DD,2,AH,Co,0,0,0,0,0,0,0,1
DD3-2BG-G,G,AGCO,1,0,DD3,2BG,DD3_2BG,DD,2,BG,Co,0,1,0,0,0,0,0,0
DD3-2CG-G,G,AGCO,1,0,DD3,2CG,DD3_2CG,DD,2,CG,Co,0,0,1,0,0,0,0,0
DD3-2DG-G,G,AGCO,1,0,DD3,2DG,DD3_2DG,DD,2,DG,Co,0,0,0,1,0,0,0,0
DD3-2EG-G,G,AGCO,1,0,DD3,2EG,DD3_2EG,DD,2,EG,Co,0,0,0,0,1,0,0,0
DD3-2FG-G,G,AGCO,1,0,DD3,2FG,DD3_2FG,DD,2,FG,Co,0,0,0,0,0,1,0,0
DD3-2GH-G,G,AGCO,1,0,DD3,2GH,DD3_2GH,DD,2,GH,Co,0,0,0,0,0,0,0,1
DD3-4A-A1,A,BIPI,1,50.7,DD3,4A,DD3_4A,DD,4,A,Mono,3,0,0,0,0,0,0,0
DD3-4A-A2,A,BIPI,1,152.1,DD3,4A,DD3_4A,DD,4,A,Mono,3,0,0,0,0,0,0,0
DD3-4A-A3,A,BIPI,1,101.4,DD3,4A,DD3_4A,DD,4,A,Mono,3,0,0,0,0,0,0,0
DD3-4A-A4,A,BIPI,1,0,DD3,4A,DD3_4A,DD,4,A,Mono,3,0,0,0,0,0,0,0
DD3-4G-G1,G,AGCO,1,0,DD3,4G,DD3_4G,DD,4,G,Mono,0,0,0,0,0,0,3,0
DD3-4G-G2,G,AGCO,1,0,DD3,4G,DD3_4G,DD,4,G,Mono,0,0,0,0,0,0,3,0
DD3-4G-G3,G,AGCO,1,0,DD3,4G,DD3_4G,DD,4,G,Mono,0,0,0,0,0,0,3,0
DD3-4G-G4,G,AGCO,1,246.9,DD3,4G,DD3_4G,DD,4,G,Mono,0,0,0,0,0,0,3,0
DD3-4AB-A1,A,BIPI,1,304.2,DD3,4AB,DD3_4AB,DD,4,AB,Co,1,2,0,0,0,0,0,0
DD3-4AB-A2,A,BIPI,1,354.9,DD3,4AB,DD3_4AB,DD,4,AB,Co,1,2,0,0,0,0,0,0
DD3-4AC-A1,A,BIPI,1,0,DD3,4AC,DD3_4AC,DD,4,AC,Co,1,0,2,0,0,0,0,0
DD3-4AC-A2,A,BIPI,1,0,DD3,4AC,DD3_4AC,DD,4,AC,Co,1,0,2,0,0,0,0,0
DD3-4AD-A1,A,BIPI,1,152.1,DD3,4AD,DD3_4AD,DD,4,AD,Co,1,0,0,2,0,0,0,0
DD3-4AD-A2,A,BIPI,1,507,DD3,4AD,DD3_4AD,DD,4,AD,Co,1,0,0,2,0,0,0,0
DD3-4AE-A1,A,BIPI,1,152.1,DD3,4AE,DD3_4AE,DD,4,AE,Co,1,0,0,0,2,0,0,0
DD3-4AE-A2,A,BIPI,1,202.8,DD3,4AE,DD3_4AE,DD,4,AE,Co,1,0,0,0,2,0,0,0
DD3-4AF-A1,A,BIPI,1,0,DD3,4AF,DD3_4AF,DD,4,AF,Co,1,0,0,0,0,2,0,0
DD3-4AF-A2,A,BIPI,1,304.2,DD3,4AF,DD3_4AF,DD,4,AF,Co,1,0,0,0,0,2,0,0
DD3-4AG-A1,A,BIPI,1,202.8,DD3,4AG,DD3_4AG,DD,4,AG,Co,1,0,0,0,0,0,2,0
DD3-4AG-A2,A,BIPI,1,0,DD3,4AG,DD3_4AG,DD,4,AG,Co,1,0,0,0,0,0,2,0
DD3-4AG-G1,G,AGCO,1,0,DD3,4AG,DD3_4AG,DD,4,AG,Co,2,0,0,0,0,0,1,0
DD3-4AG-G2,G,AGCO,1,0,DD3,4AG,DD3_4AG,DD,4,AG,Co,2,0,0,0,0,0,1,0