No,Sp,Species,Survival,num_seeds,Block,Pot,Pot,Raintype,Density,Composition,Culture,n_BIPI,n_OPCO,n_PHAN,n_DAAE,n_POHY,n_PRCL,n_AGCO,n_LUHY
DW3-8H-H7,H,LUHY,1,518,DW3,8H,DW3_8H,DW,8,H,Mono,0,0,7,0,0,0,0,0
DW3-8H-H8,H,LUHY,1,370,DW3,8H,DW3_8H,DW,8,H,Mono,0,0,7,0,0,0,0,0
DW3-8AB-B1,B,OPCO,1,0,DW3,8AB,DW3_8AB,DW,8,AB,Co,4,3,0,0,0,0,0,0
DW3-8AB-B2,B,OPCO,1,0,DW3,8AB,DW3_8AB,DW,8,AB,Co,4,3,0,0,0,0,0,0
DW3-8AB-B3,B,OPCO,1,0,DW3,8AB,DW3_8AB,DW,8,AB,Co,4,3,0,0,0,0,0,0
DW3-8AB-B4,B,OPCO,1,0,DW3,8AB,DW3_8AB,DW,8,AB,Co,4,3,0,0,0,0,0,0
DW3-8AH-H1,H,LUHY,1,962,DW3,8AH,DW3_8AH,DW,8,AH,Co,4,0,0,0,0,0,0,3
DW3-8AH-H2,H,LUHY,1,370,DW3,8AH,DW3_8AH,DW,8,AH,Co,4,0,0,0,0,0,0,3
DW3-8AH-H3,H,LUHY,1,1036,DW3,8AH,DW3_8AH,DW,8,AH,Co,4,0,0,0,0,0,0,3
DW3-8AH-H4,H,LUHY,1,962,DW3,8AH,DW3_8AH,DW,8,AH,Co,4,0,0,0,0,0,0,3
DW3-8BC-B1,B,OPCO,1,0,DW3,8BC,DW3_8BC,DW,8,BC,Co,0,3,4,0,0,0,0,0
DW3-8BC-B2,B,OPCO,1,98.54,DW3,8BC,DW3_8BC,DW,8,BC,Co,0,3,4,0,0,0,0,0
DW3-8BC-B3,B,OPCO,1,98.54,DW3,8BC,DW3_8BC,DW,8,BC,Co,0,3,4,0,0,0,0,0
DW3-8BC-B4,B,OPCO,1,45.48,DW3,8BC,DW3_8BC,DW,8,BC,Co,0,3,4,0,0,0,0,0
DW3-8BD-B1,B,OPCO,1,0,DW3,8BD,DW3_8BD,DW,8,BD,Co,0,3,0,4,0,0,0,0
DW3-8BD-B2,B,OPCO,1,15.16,DW3,8BD,DW3_8BD,DW,8,BD,Co,0,3,0,4,0,0,0,0
DW3-8BD-B3,B,OPCO,1,0,DW3,8BD,DW3_8BD,DW,8,BD,Co,0,3,0,4,0,0,0,0
DW3-8BD-B4,B,OPCO,1,22.74,DW3,8BD,DW3_8BD,DW,8,BD,Co,0,3,0,4,0,0,0,0
DW3-8BE-B1,B,OPCO,1,0,DW3,8BE,DW3_8BE,DW,8,BE,Co,0,3,0,0,4,0,0,0
DW3-8BE-B2,B,OPCO,1,0,DW3,8BE,DW3_8BE,DW,8,BE,Co,0,3,0,0,4,0,0,0
DW3-8BE-B3,B,OPCO,1,53.06,DW3,8BE,DW3_8BE,DW,8,BE,Co,0,3,0,0,4,0,0,0
DW3-8BE-B4,B,OPCO,1,0,DW3,8BE,DW3_8BE,DW,8,BE,Co,0,3,0,0,4,0,0,0
DW3-8BF-B1,B,OPCO,1,30.32,DW3,8BF,DW3_8BF,DW,8,BF,Co,0,3,0,0,0,4,0,0
DW3-8BF-B2,B,OPCO,1,0,DW3,8BF,DW3_8BF,DW,8,BF,Co,0,3,0,0,0,4,0,0
DW3-8BF-B3,B,OPCO,1,0,DW3,8BF,DW3_8BF,DW,8,BF,Co,0,3,0,0,0,4,0,0
DW3-8BF-B4,B,OPCO,1,0,DW3,8BF,DW3_8BF,DW,8,BF,Co,0,3,0,0,0,4,0,0
DW3-8BG-B1,B,OPCO,1,37.9,DW3,8BG,DW3_8BG,DW,8,BG,Co,0,3,0,0,0,0,4,0
DW3-8BG-B2,B,OPCO,1,0,DW3,8BG,DW3_8BG,DW,8,BG,Co,0,3,0,0,0,0,4,0
DW3-8BG-B3,B,OPCO,1,0,DW3,8BG,DW3_8BG,DW,8,BG,Co,0,3,0,0,0,0,4,0
DW3-8BG-B4,B,OPCO,1,0,DW3,8BG,DW3_8BG,DW,8,BG,Co,0,3,0,0,0,0,4,0
DW3-8BH-B1,B,OPCO,1,0,DW3,8BH,DW3_8BH,DW,8,BH,Co,0,3,0,0,0,0,0,4
DW3-8BH-B2,B,OPCO,1,0,DW3,8BH,DW3_8BH,DW,8,BH,Co,0,3,0,0,0,0,0,4
DW3-8BH-B3,B,OPCO,1,0,DW3,8BH,DW3_8BH,DW,8,BH,Co,0,3,0,0,0,0,0,4
DW3-8BH-B4,B,OPCO,1,0,DW3,8BH,DW3_8BH,DW,8,BH,Co,0,3,0,0,0,0,0,4
DW3-8BH-H1,H,LUHY,1,1554,DW3,8BH,DW3_8BH,DW,8,BH,Co,0,4,0,0,0,0,0,3
DW3-8BH-H2,H,LUHY,1,1924,DW3,8BH,DW3_8BH,DW,8,BH,Co,0,4,0,0,0,0,0,3
DW3-8BH-H3,H,LUHY,1,962,DW3,8BH,DW3_8BH,DW,8,BH,Co,0,4,0,0,0,0,0,3
DW3-8BH-H4,H,LUHY,1,1406,DW3,8BH,DW3_8BH,DW,8,BH,Co,0,4,0,0,0,0,0,3
DW3-8CH-H1,H,LUHY,1,740,DW3,8CH,DW3_8CH,DW,8,CH,Co,0,0,4,0,0,0,0,3
DW3-8CH-H2,H,LUHY,1,1406,DW3,8CH,DW3_8CH,DW,8,CH,Co,0,0,4,0,0,0,0,3
DW3-8CH-H3,H,LUHY,1,666,DW3,8CH,DW3_8CH,DW,8,CH,Co,0,0,4,0,0,0,0,3
DW3-8CH-H4,H,LUHY,1,592,DW3,8CH,DW3_8CH,DW,8,CH,Co,0,0,4,0,0,0,0,3
DW3-8DH-H1,H,LUHY,1,370,DW3,8DH,DW3_8DH,DW,8,DH,Co,0,0,0,4,0,0,0,3
DW3-8DH-H2,H,LUHY,1,888,DW3,8DH,DW3_8DH,DW,8,DH,Co,0,0,0,4,0,0,0,3
DW3-8DH-H3,H,LUHY,1,1406,DW3,8DH,DW3_8DH,DW,8,DH,Co,0,0,0,4,0,0,0,3
DW3-8DH-H4,H,LUHY,1,592,DW3,8DH,DW3_8DH,DW,8,DH,Co,0,0,0,4,0,0,0,3
DW3-8EH-H1,H,LUHY,1,814,DW3,8EH,DW3_8EH,DW,8,EH,Co,0,0,0,0,4,0,0,3
DW3-8EH-H2,H,LUHY,1,370,DW3,8EH,DW3_8EH,DW,8,EH,Co,0,0,0,0,4,0,0,3
DW3-8EH-H3,H,LUHY,1,222,DW3,8EH,DW3_8EH,DW,8,EH,Co,0,0,0,0,4,0,0,3
DW3-8EH-H4,H,LUHY,1,1110,DW3,8EH,DW3_8EH,DW,8,EH,Co,0,0,0,0,4,0,0,3
DW3-8FH-H1,H,LUHY,1,1332,DW3,8FH,DW3_8FH,DW,8,FH,Co,0,0,0,0,0,4,0,3
DW3-8FH-H2,H,LUHY,1,1998,DW3,8FH,DW3_8FH,DW,8,FH,Co,0,0,0,0,0,4,0,3
DW3-8FH-H3,H,LUHY,1,1628,DW3,8FH,DW3_8FH,DW,8,FH,Co,0,0,0,0,0,4,0,3
DW3-8FH-H4,H,LUHY,1,1850,DW3,8FH,DW3_8FH,DW,8,FH,Co,0,0,0,0,0,4,0,3
DW3-8GH-H1,H,LUHY,1,1332,DW3,8GH,DW3_8GH,DW,8,GH,Co,0,0,0,0,0,0,4,3
DW3-8GH-H2,H,LUHY,1,1110,DW3,8GH,DW3_8GH,DW,8,GH,Co,0,0,0,0,0,0,4,3
DW3-8GH-H3,H,LUHY,1,962,DW3,8GH,DW3_8GH,DW,8,GH,Co,0,0,0,0,0,0,4,3
DW3-8GH-H4,H,LUHY,1,296,DW3,8GH,DW3_8GH,DW,8,GH,Co,0,0,0,0,0,0,4,3
DW4-2B-B1,B,OPCO,1,75.8,DW4,2B,DW4_2B,DW,2,B,Mono,0,1,0,0,0,0,0,0
DW4-2B-B2,B,OPCO,1,212.24,DW4,2B,DW4_2B,DW,2,B,Mono,0,1,0,0,0,0,0,0
DW4-2H-H1,H,LUHY,1,1036,DW4,2H,DW4_2H,DW,2,H,Mono,0,0,0,0,0,0,0,1
DW4-2H-H2,H,LUHY,1,1924,DW4,2H,DW4_2H,DW,2,H,Mono,0,0,0,0,0,0,0,1
DW4-2AB-B,B,OPCO,1,30.32,DW4,2AB,DW4_2AB,DW,2,AB,Co,1,0,0,0,0,0,0,0
DW4-2AH-H,H,LUHY,1,2146,DW4,2AH,DW4_2AH,DW,2,AH,Co,1,0,0,0,0,0,0,0
DW4-2BC-B,B,OPCO,1,189.5,DW4,2BC,DW4_2BC,DW,2,BC,Co,0,0,1,0,0,0,0,0
DW4-2BD-B,B,OPCO,1,37.9,DW4,2BD,DW4_2BD,DW,2,BD,Co,0,0,0,1,0,0,0,0
DW4-2BE-B,B,OPCO,1,37.9,DW4,2BE,DW4_2BE,DW,2,BE,Co,0,0,0,0,1,0,0,0
DW4-2BF-B,B,OPCO,1,121.28,DW4,2BF,DW4_2BF,DW,2,BF,Co,0,0,0,0,0,1,0,0
DW4-2BG-B,B,OPCO,1,0,DW4,2BG,DW4_2BG,DW,2,BG,Co,0,0,0,0,0,0,1,0
DW4-2BH-B,B,OPCO,1,0,DW4,2BH,DW4_2BH,DW,2,BH,Co,0,0,0,0,0,0,0,1
DW4-2BH-H,H,LUHY,1,4366,DW4,2BH,DW4_2BH,DW,2,BH,Co,0,1,0,0,0,0,0,0
DW4-2CH-H,H,LUHY,1,666,DW4,2CH,DW4_2CH,DW,2,CH,Co,0,0,1,0,0,0,0,0
DW4-2DH-H,H,LUHY,1,1110,DW4,2DH,DW4_2DH,DW,2,DH,Co,0,0,0,1,0,0,0,0
DW4-2EH-H,H,LUHY,1,4144,DW4,2EH,DW4_2EH,DW,2,EH,Co,0,0,0,0,1,0,0,0
DW4-2FH-H,H,LUHY,1,888,DW4,2FH,DW4_2FH,DW,2,FH,Co,0,0,0,0,0,1,0,0
DW4-2GH-H,H,LUHY,1,2368,DW4,2GH,DW4_2GH,DW,2,GH,Co,0,0,0,0,0,0,1,0
DW4-4B-B1,B,OPCO,1,53.06,DW4,4B,DW4_4B,DW,4,B,Mono,0,3,0,0,0,0,0,0
DW4-4B-B2,B,OPCO,1,30.32,DW4,4B,DW4_4B,DW,4,B,Mono,0,3,0,0,0,0,0,0
DW4-4B-B3,B,OPCO,1,98.54,DW4,4B,DW4_4B,DW,4,B,Mono,0,3,0,0,0,0,0,0
DW4-4B-B4,B,OPCO,1,60.64,DW4,4B,DW4_4B,DW,4,B,Mono,0,3,0,0,0,0,0,0
DW4-4H-H1,H,LUHY,1,1110,DW4,4H,DW4_4H,DW,4,H,Mono,0,0,0,0,0,0,0,3
DW4-4H-H2,H,LUHY,1,1036,DW4,4H,DW4_4H,DW,4,H,Mono,0,0,0,0,0,0,0,3
DW4-4H-H3,H,LUHY,1,888,DW4,4H,DW4_4H,DW,4,H,Mono,0,0,0,0,0,0,0,3
DW4-4H-H4,H,LUHY,1,518,DW4,4H,DW4_4H,DW,4,H,Mono,0,0,0,0,0,0,0,3
DW4-4AB-B1,B,OPCO,1,0,DW4,4AB,DW4_4AB,DW,4,AB,Co,2,1,0,0,0,0,0,0
DW4-4AB-B2,B,OPCO,1,0,DW4,4AB,DW4_4AB,DW,4,AB,Co,2,1,0,0,0,0,0,0
DW4-4AH-H1,H,LUHY,1,1850,DW4,4AH,DW4_4AH,DW,4,AH,Co,2,0,0,0,0,0,0,1
DW4-4AH-H2,H,LUHY,1,1998,DW4,4AH,DW4_4AH,DW,4,AH,Co,2,0,0,0,0,0,0,1
DW4-4BC-B1,B,OPCO,1,106.12,DW4,4BC,DW4_4BC,DW,4,BC,Co,0,1,2,0,0,0,0,0
DW4-4BC-B2,B,OPCO,1,98.54,DW4,4BC,DW4_4BC,DW,4,BC,Co,0,1,2,0,0,0,0,0
DW4-4BD-B1,B,OPCO,1,60.64,DW4,4BD,DW4_4BD,DW,4,BD,Co,0,1,0,2,0,0,0,0
DW4-4BD-B2,B,OPCO,1,272.88,DW4,4BD,DW4_4BD,DW,4,BD,Co,0,1,0,2,0,0,0,0
DW4-4BE-B1,B,OPCO,1,60.64,DW4,4BE,DW4_4BE,DW,4,BE,Co,0,1,0,0,2,0,0,0
DW4-4BE-B2,B,OPCO,1,242.56,DW4,4BE,DW4_4BE,DW,4,BE,Co,0,1,0,0,2,0,0,0
DW4-4BF-B1,B,OPCO,1,0,DW4,4BF,DW4_4BF,DW,4,BF,Co,0,1,0,0,0,2,0,0
DW4-4BF-B2,B,OPCO,1,0,DW4,4BF,DW4_4BF,DW,4,BF,Co,0,1,0,0,0,2,0,0
DW4-4BG-B1,B,OPCO,1,0,DW4,4BG,DW4_4BG,DW,4,BG,Co,0,1,0,0,0,0,2,0
DW4-4BG-B2,B,OPCO,1,0,DW4,4BG,DW4_4BG,DW,4,BG,Co,0,1,0,0,0,0,2,0
DW4-4BH-B1,B,OPCO,1,0,DW4,4BH,DW4_4BH,DW,4,BH,Co,0,1,0,0,0,0,0,2
DW4-4BH-B2,B,OPCO,1,0,DW4,4BH,DW4_4BH,DW,4,BH,Co,0,1,0,0,0,0,0,2
DW4-4BH-H1,H,LUHY,1,1924,DW4,4BH,DW4_4BH,DW,4,BH,Co,0,2,0,0,0,0,0,1
DW4-4BH-H2,H,LUHY,1,1110,DW4,4BH,DW4_4BH,DW,4,BH,Co,0,2,0,0,0,0,0,1
DW4-4CH-H1,H,LUHY,1,3108,DW4,4CH,DW4_4CH,DW,4,CH,Co,0,0,2,0,0,0,0,1
DW4-4CH-H2,H,LUHY,1,1850,DW4,4CH,DW4_4CH,DW,4,CH,Co,0,0,2,0,0,0,0,1
DW4-4DH-H1,H,LUHY,1,3330,DW4,4DH,DW4_4DH,DW,4,DH,Co,0,0,0,2,0,0,0,1
DW4-4DH-H2,H,LUHY,1,3256,DW4,4DH,DW4_4DH,DW,4,DH,Co,0,0,0,2,0,0,0,1
DW4-4EH-H1,H,LUHY,1,3034,DW4,4EH,DW4_4EH,DW,4,EH,Co,0,0,0,0,2,0,0,1
DW4-4EH-H2,H,LUHY,1,3404,DW4,4EH,DW4_4EH,DW,4,EH,Co,0,0,0,0,2,0,0,1
DW4-4FH-H1,H,LUHY,1,1776,DW4,4FH,DW4_4FH,DW,4,FH,Co,0,0,0,0,0,2,0,1
DW4-4FH-H2,H,LUHY,1,3922,DW4,4FH,DW4_4FH,DW,4,FH,Co,0,0,0,0,0,2,0,1
DW4-4GH-H1,H,LUHY,1,4218,DW4,4GH,DW4_4GH,DW,4,GH,Co,0,0,0,0,0,0,2,1
DW4-4GH-H2,H,LUHY,1,2442,DW4,4GH,DW4_4GH,DW,4,GH,Co,0,0,0,0,0,0,2,1
DW4-8B-B1,B,OPCO,1,60.64,DW4,8B,DW4_8B,DW,8,B,Mono,0,7,0,0,0,0,0,0
DW4-8B-B2,B,OPCO,1,60.64,DW4,8B,DW4_8B,DW,8,B,Mono,0,7,0,0,0,0,0,0
DW4-8B-B3,B,OPCO,1,0,DW4,8B,DW4_8B,DW,8,B,Mono,0,7,0,0,0,0,0,0
DW4-8B-B4,B,OPCO,1,0,DW4,8B,DW4_8B,DW,8,B,Mono,0,7,0,0,0,0,0,0
DW4-8B-B5,B,OPCO,1,60.64,DW4,8B,DW4_8B,DW,8,B,Mono,0,7,0,0,0,0,0,0
DW4-8B-B6,B,OPCO,1,37.9,DW4,8B,DW4_8B,DW,8,B,Mono,0,7,0,0,0,0,0,0
DW4-8B-B7,B,OPCO,1,68.22,DW4,8B,DW4_8B,DW,8,B,Mono,0,7,0,0,0,0,0,0
DW4-8B-B8,B,OPCO,1,0,DW4,8B,DW4_8B,DW,8,B,Mono,0,7,0,0,0,0,0,0
DW4-8H-H1,H,LUHY,1,222,DW4,8H,DW4_8H,DW,8,H,Mono,0,0,7,0,0,0,0,0
DW4-8H-H2,H,LUHY,1,74,DW4,8H,DW4_8H,DW,8,H,Mono,0,0,7,0,0,0,0,0
DW4-8H-H3,H,LUHY,1,888,DW4,8H,DW4_8H,DW,8,H,Mono,0,0,7,0,0,0,0,0
DW4-8H-H4,H,LUHY,1,592,DW4,8H,DW4_8H,DW,8,H,Mono,0,0,7,0,0,0,0,0
DW4-8H-H5,H,LUHY,1,518,DW4,8H,DW4_8H,DW,8,H,Mono,0,0,7,0,0,0,0,0
DW4-8H-H6,H,LUHY,1,444,DW4,8H,DW4_8H,DW,8,H,Mono,0,0,7,0,0,0,0,0
DW4-8H-H7,H,LUHY,1,296,DW4,8H,DW4_8H,DW,8,H,Mono,0,0,7,0,0,0,0,0
DW4-8H-H8,H,LUHY,1,814,DW4,8H,DW4_8H,DW,8,H,Mono,0,0,7,0,0,0,0,0
DW4-8AB-B1,B,OPCO,1,30.32,DW4,8AB,DW4_8AB,DW,8,AB,Co,4,3,0,0,0,0,0,0
DW4-8AB-B2,B,OPCO,1,0,DW4,8AB,DW4_8AB,DW,8,AB,Co,4,3,0,0,0,0,0,0
DW4-8AB-B3,B,OPCO,1,22.74,DW4,8AB,DW4_8AB,DW,8,AB,Co,4,3,0,0,0,0,0,0
DW4-8AB-B4,B,OPCO,1,30.32,DW4,8AB,DW4_8AB,DW,8,AB,Co,4,3,0,0,0,0,0,0
DW4-8AH-H1,H,LUHY,1,814,DW4,8AH,DW4_8AH,DW,8,AH,Co,4,0,0,0,0,0,0,3
DW4-8AH-H2,H,LUHY,1,518,DW4,8AH,DW4_8AH,DW,8,AH,Co,4,0,0,0,0,0,0,3
DW4-8AH-H3,H,LUHY,1,296,DW4,8AH,DW4_8AH,DW,8,AH,Co,4,0,0,0,0,0,0,3
DW4-8AH-H4,H,LUHY,1,1628,DW4,8AH,DW4_8AH,DW,8,AH,Co,4,0,0,0,0,0,0,3
DW4-8BC-B1,B,OPCO,1,0,DW4,8BC,DW4_8BC,DW,8,BC,Co,0,3,4,0,0,0,0,0
DW4-8BC-B2,B,OPCO,1,45.48,DW4,8BC,DW4_8BC,DW,8,BC,Co,0,3,4,0,0,0,0,0
DW4-8BC-B3,B,OPCO,1,30.32,DW4,8BC,DW4_8BC,DW,8,BC,Co,0,3,4,0,0,0,0,0
DW4-8BC-B4,B,OPCO,1,37.9,DW4,8BC,DW4_8BC,DW,8,BC,Co,0,3,4,0,0,0,0,0
DW4-8BD-B1,B,OPCO,1,0,DW4,8BD,DW4_8BD,DW,8,BD,Co,0,3,0,4,0,0,0,0
DW4-8BD-B2,B,OPCO,1,0,DW4,8BD,DW4_8BD,DW,8,BD,Co,0,3,0,4,0,0,0,0
DW4-8BD-B3,B,OPCO,1,0,DW4,8BD,DW4_8BD,DW,8,BD,Co,0,3,0,4,0,0,0,0
DW4-8BD-B4,B,OPCO,1,0,DW4,8BD,DW4_8BD,DW,8,BD,Co,0,3,0,4,0,0,0,0
DW4-8BE-B1,B,OPCO,1,37.9,DW4,8BE,DW4_8BE,DW,8,BE,Co,0,3,0,0,4,0,0,0
DW4-8BE-B2,B,OPCO,1,0,DW4,8BE,DW4_8BE,DW,8,BE,Co,0,3,0,0,4,0,0,0
DW4-8BE-B3,B,OPCO,1,0,DW4,8BE,DW4_8BE,DW,8,BE,Co,0,3,0,0,4,0,0,0
DW4-8BE-B4,B,OPCO,1,0,DW4,8BE,DW4_8BE,DW,8,BE,Co,0,3,0,0,4,0,0,0
DW4-8BF-B1,B,OPCO,1,0,DW4,8BF,DW4_8BF,DW,8,BF,Co,0,3,0,0,0,4,0,0
DW4-8BF-B2,B,OPCO,1,0,DW4,8BF,DW4_8BF,DW,8,BF,Co,0,3,0,0,0,4,0,0
DW4-8BF-B3,B,OPCO,1,0,DW4,8BF,DW4_8BF,DW,8,BF,Co,0,3,0,0,0,4,0,0
DW4-8BF-B4,B,OPCO,1,30.32,DW4,8BF,DW4_8BF,DW,8,BF,Co,0,3,0,0,0,4,0,0
DW4-8BG-B1,B,OPCO,1,30.32,DW4,8BG,DW4_8BG,DW,8,BG,Co,0,3,0,0,0,0,4,0
DW4-8BG-B2,B,OPCO,1,0,DW4,8BG,DW4_8BG,DW,8,BG,Co,0,3,0,0,0,0,4,0
DW4-8BG-B3,B,OPCO,1,0,DW4,8BG,DW4_8BG,DW,8,BG,Co,0,3,0,0,0,0,4,0
DW4-8BG-B4,B,OPCO,1,0,DW4,8BG,DW4_8BG,DW,8,BG,Co,0,3,0,0,0,0,4,0
DW4-8BH-B1,B,OPCO,1,0,DW4,8BH,DW4_8BH,DW,8,BH,Co,0,3,0,0,0,0,0,4
DW4-8BH-B2,B,OPCO,1,0,DW4,8BH,DW4_8BH,DW,8,BH,Co,0,3,0,0,0,0,0,4
DW4-8BH-B3,B,OPCO,1,0,DW4,8BH,DW4_8BH,DW,8,BH,Co,0,3,0,0,0,0,0,4
DW4-8BH-B4,B,OPCO,1,0,DW4,8BH,DW4_8BH,DW,8,BH,Co,0,3,0,0,0,0,0,4
DW4-8BH-H1,H,LUHY,1,888,DW4,8BH,DW4_8BH,DW,8,BH,Co,0,4,0,0,0,0,0,3
DW4-8BH-H2,H,LUHY,1,740,DW4,8BH,DW4_8BH,DW,8,BH,Co,0,4,0,0,0,0,0,3
DW4-8BH-H3,H,LUHY,1,1036,DW4,8BH,DW4_8BH,DW,8,BH,Co,0,4,0,0,0,0,0,3
DW4-8BH-H4,H,LUHY,1,444,DW4,8BH,DW4_8BH,DW,8,BH,Co,0,4,0,0,0,0,0,3
DW4-8CH-H1,H,LUHY,1,518,DW4,8CH,DW4_8CH,DW,8,CH,Co,0,0,4,0,0,0,0,3
DW4-8CH-H2,H,LUHY,1,1332,DW4,8CH,DW4_8CH,DW,8,CH,Co,0,0,4,0,0,0,0,3
DW4-8CH-H3,H,LUHY,1,740,DW4,8CH,DW4_8CH,DW,8,CH,Co,0,0,4,0,0,0,0,3
DW4-8CH-H4,H,LUHY,1,962,DW4,8CH,DW4_8CH,DW,8,CH,Co,0,0,4,0,0,0,0,3
DW4-8DH-H1,H,LUHY,1,1332,DW4,8DH,DW4_8DH,DW,8,DH,Co,0,0,0,4,0,0,0,3
DW4-8DH-H2,H,LUHY,1,1184,DW4,8DH,DW4_8DH,DW,8,DH,Co,0,0,0,4,0,0,0,3
DW4-8DH-H3,H,LUHY,1,1036,DW4,8DH,DW4_8DH,DW,8,DH,Co,0,0,0,4,0,0,0,3
DW4-8DH-H4,H,LUHY,1,1332,DW4,8DH,DW4_8DH,DW,8,DH,Co,0,0,0,4,0,0,0,3
DW4-8EH-H1,H,LUHY,1,1184,DW4,8EH,DW4_8EH,DW,8,EH,Co,0,0,0,0,4,0,0,3
DW4-8EH-H2,H,LUHY,1,0,DW4,8EH,DW4_8EH,DW,8,EH,Co,0,0,0,0,4,0,0,3
DW4-8EH-H3,H,LUHY,1,1628,DW4,8EH,DW4_8EH,DW,8,EH,Co,0,0,0,0,4,0,0,3
DW4-8EH-H4,H,LUHY,1,962,DW4,8EH,DW4_8EH,DW,8,EH,Co,0,0,0,0,4,0,0,3
DW4-8FH-H1,H,LUHY,1,814,DW4,8FH,DW4_8FH,DW,8,FH,Co,0,0,0,0,0,4,0,3
DW4-8FH-H2,H,LUHY,1,518,DW4,8FH,DW4_8FH,DW,8,FH,Co,0,0,0,0,0,4,0,3
DW4-8FH-H3,H,LUHY,1,740,DW4,8FH,DW4_8FH,DW,8,FH,Co,0,0,0,0,0,4,0,3
DW4-8FH-H4,H,LUHY,1,1110,DW4,8FH,DW4_8FH,DW,8,FH,Co,0,0,0,0,0,4,0,3
DW4-8GH-H1,H,LUHY,1,1110,DW4,8GH,DW4_8GH,DW,8,GH,Co,0,0,0,0,0,0,4,3
DW4-8GH-H2,H,LUHY,1,888,DW4,8GH,DW4_8GH,DW,8,GH,Co,0,0,0,0,0,0,4,3
DW4-8GH-H3,H,LUHY,1,740,DW4,8GH,DW4_8GH,DW,8,GH,Co,0,0,0,0,0,0,4,3
DW4-8GH-H4,H,LUHY,1,1258,DW4,8GH,DW4_8GH,DW,8,GH,Co,0,0,0,0,0,0,4,3
DD3-2B-B1,B,OPCO,1,106.12,DD3,2B,DD3_2B,DD,2,B,Mono,0,1,0,0,0,0,0,0
DD3-2B-B2,B,OPCO,1,0,DD3,2B,DD3_2B,DD,2,B,Mono,0,1,0,0,0,0,0,0
DD3-2H-H1,H,LUHY,1,1924,DD3,2H,DD3_2H,DD,2,H,Mono,0,0,0,0,0,0,0,1
DD3-2H-H2,H,LUHY,1,1924,DD3,2H,DD3_2H,DD,2,H,Mono,0,0,0,0,0,0,0,1
DD3-2AB-B,B,OPCO,1,30.32,DD3,2AB,DD3_2AB,DD,2,AB,Co,1,0,0,0,0,0,0,0
DD3-2AH-H,H,LUHY,1,1110,DD3,2AH,DD3_2AH,DD,2,AH,Co,1,0,0,0,0,0,0,0
DD3-2BC-B,B,OPCO,1,204.66,DD3,2BC,DD3_2BC,DD,2,BC,Co,0,0,1,0,0,0,0,0
DD3-2BD-B,B,OPCO,1,265.3,DD3,2BD,DD3_2BD,DD,2,BD,Co,0,0,0,1,0,0,0,0
DD3-2BE-B,B,OPCO,1,68.22,DD3,2BE,DD3_2BE,DD,2,BE,Co,0,0,0,0,1,0,0,0
DD3-2BF-B,B,OPCO,1,0,DD3,2BF,DD3_2BF,DD,2,BF,Co,0,0,0,0,0,1,0,0
DD3-2BG-B,B,OPCO,1,151.6,DD3,2BG,DD3_2BG,DD,2,BG,Co,0,0,0,0,0,0,1,0
DD3-2BH-B,B,OPCO,1,0,DD3,2BH,DD3_2BH,DD,2,BH,Co,0,0,0,0,0,0,0,1
DD3-2BH-H,H,LUHY,1,2738,DD3,2BH,DD3_2BH,DD,2,BH,Co,0,1,0,0,0,0,0,0
DD3-2CH-H,H,LUHY,1,4292,DD3,2CH,DD3_2CH,DD,2,CH,Co,0,0,1,0,0,0,0,0
DD3-2DH-H,H,LUHY,1,2442,DD3,2DH,DD3_2DH,DD,2,DH,Co,0,0,0,1,0,0,0,0
DD3-2EH-H,H,LUHY,1,3034,DD3,2EH,DD3_2EH,DD,2,EH,Co,0,0,0,0,1,0,0,0
DD3-2FH-H,H,LUHY,1,3552,DD3,2FH,DD3_2FH,DD,2,FH,Co,0,0,0,0,0,1,0,0
DD3-2GH-H,H,LUHY,1,2738,DD3,2GH,DD3_2GH,DD,2,GH,Co,0,0,0,0,0,0,1,0
DD3-4B-B1,B,OPCO,1,136.44,DD3,4B,DD3_4B,DD,4,B,Mono,0,3,0,0,0,0,0,0
DD3-4B-B2,B,OPCO,1,0,DD3,4B,DD3_4B,DD,4,B,Mono,0,3,0,0,0,0,0,0
DD3-4B-B3,B,OPCO,1,68.22,DD3,4B,DD3_4B,DD,4,B,Mono,0,3,0,0,0,0,0,0
DD3-4B-B4,B,OPCO,1,159.18,DD3,4B,DD3_4B,DD,4,B,Mono,0,3,0,0,0,0,0,0
DD3-4H-H1,H,LUHY,1,1258,DD3,4H,DD3_4H,DD,4,H,Mono,0,0,0,0,0,0,0,3
DD3-4H-H2,H,LUHY,1,1110,DD3,4H,DD3_4H,DD,4,H,Mono,0,0,0,0,0,0,0,3
DD3-4H-H3,H,LUHY,1,666,DD3,4H,DD3_4H,DD,4,H,Mono,0,0,0,0,0,0,0,3
DD3-4H-H4,H,LUHY,1,666,DD3,4H,DD3_4H,DD,4,H,Mono,0,0,0,0,0,0,0,3
DD3-4AB-B1,B,OPCO,1,0,DD3,4AB,DD3_4AB,DD,4,AB,Co,2,1,0,0,0,0,0,0
DD3-4AB-B2,B,OPCO,1,0,DD3,4AB,DD3_4AB,DD,4,AB,Co,2,1,0,0,0,0,0,0
DD3-4AH-H1,H,LUHY,1,518,DD3,4AH,DD3_4AH,DD,4,AH,Co,2,0,0,0,0,0,0,1
DD3-4AH-H2,H,LUHY,1,666,DD3,4AH,DD3_4AH,DD,4,AH,Co,2,0,0,0,0,0,0,1
DD3-4BC-B1,B,OPCO,1,136.44,DD3,4BC,DD3_4BC,DD,4,BC,Co,0,1,2,0,0,0,0,0
DD3-4BC-B2,B,OPCO,1,0,DD3,4BC,DD3_4BC,DD,4,BC,Co,0,1,2,0,0,0,0,0
DD3-4BD-B1,B,OPCO,1,30.32,DD3,4BD,DD3_4BD,DD,4,BD,Co,0,1,0,2,0,0,0,0
DD3-4BD-B2,B,OPCO,1,53.06,DD3,4BD,DD3_4BD,DD,4,BD,Co,0,1,0,2,0,0,0,0
DD3-4BE-B1,B,OPCO,1,0,DD3,4BE,DD3_4BE,DD,4,BE,Co,0,1,0,0,2,0,0,0
DD3-4BE-B2,B,OPCO,1,68.22,DD3,4BE,DD3_4BE,DD,4,BE,Co,0,1,0,0,2,0,0,0
DD3-4BF-B1,B,OPCO,1,121.28,DD3,4BF,DD3_4BF,DD,4,BF,Co,0,1,0,0,0,2,0,0
DD3-4BF-B2,B,OPCO,1,37.9,DD3,4BF,DD3_4BF,DD,4,BF,Co,0,1,0,0,0,2,0,0
DD3-4BG-B1,B,OPCO,1,0,DD3,4BG,DD3_4BG,DD,4,BG,Co,0,1,0,0,0,0,2,0
DD3-4BG-B2,B,OPCO,1,0,DD3,4BG,DD3_4BG,DD,4,BG,Co,0,1,0,0,0,0,2,0
DD3-4BH-B1,B,OPCO,1,0,DD3,4BH,DD3_4BH,DD,4,BH,Co,0,1,0,0,0,0,0,2
DD3-4BH-B2,B,OPCO,1,0,DD3,4BH,DD3_4BH,DD,4,BH,Co,0,1,0,0,0,0,0,2
DD3-4BH-H1,H,LUHY,1,2368,DD3,4BH,DD3_4BH,DD,4,BH,Co,0,2,0,0,0,0,0,1
DD3-4BH-H2,H,LUHY,1,1850,DD3,4BH,DD3_4BH,DD,4,BH,Co,0,2,0,0,0,0,0,1
DD3-4CH-H1,H,LUHY,1,1924,DD3,4CH,DD3_4CH,DD,4,CH,Co,0,0,2,0,0,0,0,1
DD3-4CH-H2,H,LUHY,1,1924,DD3,4CH,DD3_4CH,DD,4,CH,Co,0,0,2,0,0,0,0,1
DD3-4DH-H1,H,LUHY,1,2072,DD3,4DH,DD3_4DH,DD,4,DH,Co,0,0,0,2,0,0,0,1
DD3-4DH-H2,H,LUHY,1,2516,DD3,4DH,DD3_4DH,DD,4,DH,Co,0,0,0,2,0,0,0,1
DD3-4EH-H1,H,LUHY,1,2442,DD3,4EH,DD3_4EH,DD,4,EH,Co,0,0,0,0,2,0,0,1
DD3-4EH-H2,H,LUHY,1,1702,DD3,4EH,DD3_4EH,DD,4,EH,Co,0,0,0,0,2,0,0,1
DD3-4FH-H1,H,LUHY,1,1628,DD3,4FH,DD3_4FH,DD,4,FH,Co,0,0,0,0,0,2,0,1
DD3-4FH-H2,H,LUHY,1,1924,DD3,4FH,DD3_4FH,DD,4,FH,Co,0,0,0,0,0,2,0,1
DD3-4GH-H1,H,LUHY,1,2294,DD3,4GH,DD3_4GH,DD,4,GH,Co,0,0,0,0,0,0,2,1
DD3-4GH-H2,H,LUHY,1,1776,DD3,4GH,DD3_4GH,DD,4,GH,Co,0,0,0,0,0,0,2,1
DD3-8B-B1,B,OPCO,1,0,DD3,8B,DD3_8B,DD,8,B,Mono,0,7,0,0,0,0,0,0
DD3-8B-B2,B,OPCO,1,37.9,DD3,8B,DD3_8B,DD,8,B,Mono,0,7,0,0,0,0,0,0
DD3-8B-B3,B,OPCO,1,53.06,DD3,8B,DD3_8B,DD,8,B,Mono,0,7,0,0,0,0,0,0
DD3-8B-B4,B,OPCO,1,30.32,DD3,8B,DD3_8B,DD,8,B,Mono,0,7,0,0,0,0,0,0
DD3-8B-B5,B,OPCO,1,30.32,DD3,8B,DD3_8B,DD,8,B,Mono,0,7,0,0,0,0,0,0
DD3-8B-B6,B,OPCO,1,37.9,DD3,8B,DD3_8B,DD,8,B,Mono,0,7,0,0,0,0,0,0
DD3-8B-B7,B,OPCO,1,30.32,DD3,8B,DD3_8B,DD,8,B,Mono,0,7,0,0,0,0,0,0
DD3-8B-B8,B,OPCO,1,30.32,DD3,8B,DD3_8B,DD,8,B,Mono,0,7,0,0,0,0,0,0
DD3-8H-H1,H,LUHY,1,296,DD3,8H,DD3_8H,DD,8,H,Mono,0,0,7,0,0,0,0,0
DD3-8H-H2,H,LUHY,1,444,DD3,8H,DD3_8H,DD,8,H,Mono,0,0,7,0,0,0,0,0
DD3-8H-H3,H,LUHY,1,444,DD3,8H,DD3_8H,DD,8,H,Mono,0,0,7,0,0,0,0,0
DD3-8H-H4,H,LUHY,1,740,DD3,8H,DD3_8H,DD,8,H,Mono,0,0,7,0,0,0,0,0
DD3-8H-H5,H,LUHY,1,518,DD3,8H,DD3_8H,DD,8,H,Mono,0,0,7,0,0,0,0,0
DD3-8H-H6,H,LUHY,1,370,DD3,8H,DD3_8H,DD,8,H,Mono,0,0,7,0,0,0,0,0
DD3-8H-H7,H,LUHY,1,592,DD3,8H,DD3_8H,DD,8,H,Mono,0,0,7,0,0,0,0,0
DD3-8H-H8,H,LUHY,1,740,DD3,8H,DD3_8H,DD,8,H,Mono,0,0,7,0,0,0,0,0
DD3-8AB-B1,B,OPCO,1,0,DD3,8AB,DD3_8AB,DD,8,AB,Co,4,3,0,0,0,0,0,0
DD3-8AB-B2,B,OPCO,1,22.74,DD3,8AB,DD3_8AB,DD,8,AB,Co,4,3,0,0,0,0,0,0
DD3-8AB-B3,B,OPCO,1,0,DD3,8AB,DD3_8AB,DD,8,AB,Co,4,3,0,0,0,0,0,0
DD3-8AB-B4,B,OPCO,1,0,DD3,8AB,DD3_8AB,DD,8,AB,Co,4,3,0,0,0,0,0,0
DD3-8AH-H1,H,LUHY,1,592,DD3,8AH,DD3_8AH,DD,8,AH,Co,4,0,0,0,0,0,0,3
DD3-8AH-H2,H,LUHY,1,518,DD3,8AH,DD3_8AH,DD,8,AH,Co,4,0,0,0,0,0,0,3
DD3-8AH-H3,H,LUHY,1,222,DD3,8AH,DD3_8AH,DD,8,AH,Co,4,0,0,0,0,0,0,3
DD3-8AH-H4,H,LUHY,1,222,DD3,8AH,DD3_8AH,DD,8,AH,Co,4,0,0,0,0,0,0,3
DD3-8BC-B1,B,OPCO,1,0,DD3,8BC,DD3_8BC,DD,8,BC,Co,0,3,4,0,0,0,0,0
DD3-8BC-B2,B,OPCO,1,68.22,DD3,8BC,DD3_8BC,DD,8,BC,Co,0,3,4,0,0,0,0,0
DD3-8BC-B3,B,OPCO,1,37.9,DD3,8BC,DD3_8BC,DD,8,BC,Co,0,3,4,0,0,0,0,0
DD3-8BC-B4,B,OPCO,1,30.32,DD3,8BC,DD3_8BC,DD,8,BC,Co,0,3,4,0,0,0,0,0
DD3-8BD-B1,B,OPCO,1,0,DD3,8BD,DD3_8BD,DD,8,BD,Co,0,3,0,4,0,0,0,0
DD3-8BD-B2,B,OPCO,1,0,DD3,8BD,DD3_8BD,DD,8,BD,Co,0,3,0,4,0,0,0,0
DD3-8BD-B3,B,OPCO,1,37.9,DD3,8BD,DD3_8BD,DD,8,BD,Co,0,3,0,4,0,0,0,0
DD3-8BD-B4,B,OPCO,1,30.32,DD3,8BD,DD3_8BD,DD,8,BD,Co,0,3,0,4,0,0,0,0
DD3-8BE-B1,B,OPCO,1,0,DD3,8BE,DD3_8BE,DD,8,BE,Co,0,3,0,0,4,0,0,0
DD3-8BE-B2,B,OPCO,1,45.48,DD3,8BE,DD3_8BE,DD,8,BE,Co,0,3,0,0,4,0,0,0
DD3-8BE-B3,B,OPCO,1,37.9,DD3,8BE,DD3_8BE,DD,8,BE,Co,0,3,0,0,4,0,0,0
DD3-8BE-B4,B,OPCO,1,0,DD3,8BE,DD3_8BE,DD,8,BE,Co,0,3,0,0,4,0,0,0
DD3-8BF-B1,B,OPCO,1,0,DD3,8BF,DD3_8BF,DD,8,BF,Co,0,3,0,0,0,4,0,0
DD3-8BF-B2,B,OPCO,1,0,DD3,8BF,DD3_8BF,DD,8,BF,Co,0,3,0,0,0,4,0,0
DD3-8BF-B3,B,OPCO,1,22.74,DD3,8BF,DD3_8BF,DD,8,BF,Co,0,3,0,0,0,4,0,0
DD3-8BF-B4,B,OPCO,1,0,DD3,8BF,DD3_8BF,DD,8,BF,Co,0,3,0,0,0,4,0,0
DD3-8BG-B1,B,OPCO,1,22.74,DD3,8BG,DD3_8BG,DD,8,BG,Co,0,3,0,0,0,0,4,0
DD3-8BG-B2,B,OPCO,1,0,DD3,8BG,DD3_8BG,DD,8,BG,Co,0,3,0,0,0,0,4,0
DD3-8BG-B3,B,OPCO,1,0,DD3,8BG,DD3_8BG,DD,8,BG,Co,0,3,0,0,0,0,4,0
DD3-8BG-B4,B,OPCO,1,22.74,DD3,8BG,DD3_8BG,DD,8,BG,Co,0,3,0,0,0,0,4,0
DD3-8BH-B1,B,OPCO,1,0,DD3,8BH,DD3_8BH,DD,8,BH,Co,0,3,0,0,0,0,0,4
DD3-8BH-B2,B,OPCO,1,0,DD3,8BH,DD3_8BH,DD,8,BH,Co,0,3,0,0,0,0,0,4
DD3-8BH-B3,B,OPCO,1,0,DD3,8BH,DD3_8BH,DD,8,BH,Co,0,3,0,0,0,0,0,4
DD3-8BH-B4,B,OPCO,1,0,DD3,8BH,DD3_8BH,DD,8,BH,Co,0,3,0,0,0,0,0,4
DD3-8BH-H1,H,LUHY,1,1110,DD3,8BH,DD3_8BH,DD,8,BH,Co,0,4,0,0,0,0,0,3
DD3-8BH-H2,H,LUHY,1,740,DD3,8BH,DD3_8BH,DD,8,BH,Co,0,4,0,0,0,0,0,3
DD3-8BH-H3,H,LUHY,1,518,DD3,8BH,DD3_8BH,DD,8,BH,Co,0,4,0,0,0,0,0,3
DD3-8BH-H4,H,LUHY,1,1554,DD3,8BH,DD3_8BH,DD,8,BH,Co,0,4,0,0,0,0,0,3
DD3-8CH-H1,H,LUHY,1,1332,DD3,8CH,DD3_8CH,DD,8,CH,Co,0,0,4,0,0,0,0,3
DD3-8CH-H2,H,LUHY,1,1480,DD3,8CH,DD3_8CH,DD,8,CH,Co,0,0,4,0,0,0,0,3
DD3-8CH-H3,H,LUHY,1,1110,DD3,8CH,DD3_8CH,DD,8,CH,Co,0,0,4,0,0,0,0,3
DD3-8CH-H4,H,LUHY,1,1184,DD3,8CH,DD3_8CH,DD,8,CH,Co,0,0,4,0,0,0,0,3
DD3-8DH-H1,H,LUHY,1,518,DD3,8DH,DD3_8DH,DD,8,DH,Co,0,0,0,4,0,0,0,3
DD3-8DH-H2,H,LUHY,1,444,DD3,8DH,DD3_8DH,DD,8,DH,Co,0,0,0,4,0,0,0,3
DD3-8DH-H3,H,LUHY,1,666,DD3,8DH,DD3_8DH,DD,8,DH,Co,0,0,0,4,0,0,0,3