No,Sp,Species,Survival,num_seeds,Block,Pot,Pot,Raintype,Density,Composition,Culture,n_BIPI,n_OPCO,n_PHAN,n_DAAE,n_POHY,n_PRCL,n_AGCO,n_LUHY
WD4-2DF-F,F,PRCL,1,253.6,WD4,2DF,WD4_2DF,WD,2,DF,Co,0,0,0,1,0,0,0,0
WD4-2EF-E,E,POHY,1,749,WD4,2EF,WD4_2EF,WD,2,EF,Co,0,0,0,0,0,1,0,0
WD4-2EF-F,F,PRCL,1,1172.9,WD4,2EF,WD4_2EF,WD,2,EF,Co,0,0,0,0,1,0,0,0
WD4-2EG-E,E,POHY,1,428,WD4,2EG,WD4_2EG,WD,2,EG,Co,0,0,0,0,0,0,1,0
WD4-2FG2-F,F,PRCL,1,63.4,WD4,2FG,WD4_2FG2,WD,2,FG,Co,0,0,0,0,0,0,1,0
WD4-2FG-F,F,PRCL,1,190.2,WD4,2FG,WD4_2FG,WD,2,FG,Co,0,0,0,0,0,0,1,0
WD4-2FH-F,F,PRCL,1,412.1,WD4,2FH,WD4_2FH,WD,2,FH,Co,0,0,0,0,0,0,0,1
WD4-4E-E1,E,POHY,1,321,WD4,4E,WD4_4E,WD,4,E,Mono,0,0,0,0,3,0,0,0
WD4-4E-E2,E,POHY,1,749,WD4,4E,WD4_4E,WD,4,E,Mono,0,0,0,0,3,0,0,0
WD4-4E-E3,E,POHY,1,642,WD4,4E,WD4_4E,WD,4,E,Mono,0,0,0,0,3,0,0,0
WD4-4E-E4,E,POHY,1,428,WD4,4E,WD4_4E,WD,4,E,Mono,0,0,0,0,3,0,0,0
WD4-4F-F1,F,PRCL,1,951,WD4,4F,WD4_4F,WD,4,F,Mono,0,0,0,0,0,3,0,0
WD4-4F-F2,F,PRCL,1,475.5,WD4,4F,WD4_4F,WD,4,F,Mono,0,0,0,0,0,3,0,0
WD4-4F-F3,F,PRCL,1,380.4,WD4,4F,WD4_4F,WD,4,F,Mono,0,0,0,0,0,3,0,0
WD4-4F-F4,F,PRCL,1,221.9,WD4,4F,WD4_4F,WD,4,F,Mono,0,0,0,0,0,3,0,0
WD4-4AE-E1,E,POHY,1,428,WD4,4AE,WD4_4AE,WD,4,AE,Co,2,0,0,0,1,0,0,0
WD4-4AE-E2,E,POHY,1,428,WD4,4AE,WD4_4AE,WD,4,AE,Co,2,0,0,0,1,0,0,0
WD4-4AF-F1,F,PRCL,1,317,WD4,4AF,WD4_4AF,WD,4,AF,Co,2,0,0,0,0,1,0,0
WD4-4AF-F2,F,PRCL,1,190.2,WD4,4AF,WD4_4AF,WD,4,AF,Co,2,0,0,0,0,1,0,0
WD4-4BE-E1,E,POHY,1,428,WD4,4BE,WD4_4BE,WD,4,BE,Co,0,2,0,0,1,0,0,0
WD4-4BE-E2,E,POHY,1,642,WD4,4BE,WD4_4BE,WD,4,BE,Co,0,2,0,0,1,0,0,0
WD4-4BF-F1,F,PRCL,1,919.3,WD4,4BF,WD4_4BF,WD,4,BF,Co,0,2,0,0,0,1,0,0
WD4-4BF-F2,F,PRCL,1,1204.6,WD4,4BF,WD4_4BF,WD,4,BF,Co,0,2,0,0,0,1,0,0
WD4-4CE-E1,E,POHY,1,535,WD4,4CE,WD4_4CE,WD,4,CE,Co,0,0,2,0,1,0,0,0
WD4-4CE-E2,E,POHY,1,535,WD4,4CE,WD4_4CE,WD,4,CE,Co,0,0,2,0,1,0,0,0
WD4-4CF-F1,F,PRCL,1,919.3,WD4,4CF,WD4_4CF,WD,4,CF,Co,0,0,2,0,0,1,0,0
WD4-4CF-F2,F,PRCL,1,760.8,WD4,4CF,WD4_4CF,WD,4,CF,Co,0,0,2,0,0,1,0,0
WD4-4DE-E1,E,POHY,1,428,WD4,4DE,WD4_4DE,WD,4,DE,Co,0,0,0,2,1,0,0,0
WD4-4DE-E2,E,POHY,1,428,WD4,4DE,WD4_4DE,WD,4,DE,Co,0,0,0,2,1,0,0,0
WD4-4DF-F1,F,PRCL,1,190.2,WD4,4DF,WD4_4DF,WD,4,DF,Co,0,0,0,2,0,1,0,0
WD4-4DF-F2,F,PRCL,1,31.7,WD4,4DF,WD4_4DF,WD,4,DF,Co,0,0,0,2,0,1,0,0
WD4-4EF-E1,E,POHY,1,107,WD4,4EF,WD4_4EF,WD,4,EF,Co,0,0,0,0,1,2,0,0
WD4-4EF-E2,E,POHY,1,321,WD4,4EF,WD4_4EF,WD,4,EF,Co,0,0,0,0,1,2,0,0
WD4-4EF-F1,F,PRCL,1,475.5,WD4,4EF,WD4_4EF,WD,4,EF,Co,0,0,0,0,2,1,0,0
WD4-4EF-F2,F,PRCL,1,665.7,WD4,4EF,WD4_4EF,WD,4,EF,Co,0,0,0,0,2,1,0,0
WD4-4EG-E1,E,POHY,1,107,WD4,4EG,WD4_4EG,WD,4,EG,Co,0,0,0,0,1,0,2,0
WD4-4EG-E2,E,POHY,1,214,WD4,4EG,WD4_4EG,WD,4,EG,Co,0,0,0,0,1,0,2,0
WD4-4EH-E1,E,POHY,0,0,WD4,4EH,WD4_4EH,WD,4,EH,Co,0,0,0,0,1,0,0,2
WD4-4EH-E2,E,POHY,0,0,WD4,4EH,WD4_4EH,WD,4,EH,Co,0,0,0,0,1,0,0,2
WD4-4FG-F1,F,PRCL,1,126.8,WD4,4FG,WD4_4FG,WD,4,FG,Co,0,0,0,0,0,1,2,0
WD4-4FG-F2,F,PRCL,1,31.7,WD4,4FG,WD4_4FG,WD,4,FG,Co,0,0,0,0,0,1,2,0
WD4-4FH-F1,F,PRCL,1,0,WD4,4FH,WD4_4FH,WD,4,FH,Co,0,0,0,0,0,1,0,2
WD4-4FH-F2,F,PRCL,1,0,WD4,4FH,WD4_4FH,WD,4,FH,Co,0,0,0,0,0,1,0,2
WD4-8E-E1,E,POHY,1,214,WD4,8E,WD4_8E,WD,8,E,Mono,0,0,0,0,7,0,0,0
WD4-8E-E2,E,POHY,1,642,WD4,8E,WD4_8E,WD,8,E,Mono,0,0,0,0,7,0,0,0
WD4-8E-E3,E,POHY,1,428,WD4,8E,WD4_8E,WD,8,E,Mono,0,0,0,0,7,0,0,0
WD4-8E-E4,E,POHY,1,214,WD4,8E,WD4_8E,WD,8,E,Mono,0,0,0,0,7,0,0,0
WD4-8E-E5,E,POHY,1,214,WD4,8E,WD4_8E,WD,8,E,Mono,0,0,0,0,7,0,0,0
WD4-8E-E6,E,POHY,1,642,WD4,8E,WD4_8E,WD,8,E,Mono,0,0,0,0,7,0,0,0
WD4-8E-E7,E,POHY,1,535,WD4,8E,WD4_8E,WD,8,E,Mono,0,0,0,0,7,0,0,0
WD4-8E-E8,E,POHY,1,428,WD4,8E,WD4_8E,WD,8,E,Mono,0,0,0,0,7,0,0,0
WD4-8F-F1,F,PRCL,1,190.2,WD4,8F,WD4_8F,WD,8,F,Mono,0,0,0,0,0,7,0,0
WD4-8F-F2,F,PRCL,1,285.3,WD4,8F,WD4_8F,WD,8,F,Mono,0,0,0,0,0,7,0,0
WD4-8F-F3,F,PRCL,1,412.1,WD4,8F,WD4_8F,WD,8,F,Mono,0,0,0,0,0,7,0,0
WD4-8F-F4,F,PRCL,1,253.6,WD4,8F,WD4_8F,WD,8,F,Mono,0,0,0,0,0,7,0,0
WD4-8F-F5,F,PRCL,1,95.1,WD4,8F,WD4_8F,WD,8,F,Mono,0,0,0,0,0,7,0,0
WD4-8F-F6,F,PRCL,1,348.7,WD4,8F,WD4_8F,WD,8,F,Mono,0,0,0,0,0,7,0,0
WD4-8F-F7,F,PRCL,1,538.9,WD4,8F,WD4_8F,WD,8,F,Mono,0,0,0,0,0,7,0,0
WD4-8F-F8,F,PRCL,1,126.8,WD4,8F,WD4_8F,WD,8,F,Mono,0,0,0,0,0,7,0,0
WD4-8AE-E1,E,POHY,1,107,WD4,8AE,WD4_8AE,WD,8,AE,Co,4,0,0,0,3,0,0,0
WD4-8AE-E2,E,POHY,1,321,WD4,8AE,WD4_8AE,WD,8,AE,Co,4,0,0,0,3,0,0,0
WD4-8AE-E3,E,POHY,1,214,WD4,8AE,WD4_8AE,WD,8,AE,Co,4,0,0,0,3,0,0,0
WD4-8AE-E4,E,POHY,1,214,WD4,8AE,WD4_8AE,WD,8,AE,Co,4,0,0,0,3,0,0,0
WD4-8AF-F1,F,PRCL,1,0,WD4,8AF,WD4_8AF,WD,8,AF,Co,4,0,0,0,0,3,0,0
WD4-8AF-F2,F,PRCL,0,0,WD4,8AF,WD4_8AF,WD,8,AF,Co,4,0,0,0,0,3,0,0
WD4-8AF-F3,F,PRCL,1,190.2,WD4,8AF,WD4_8AF,WD,8,AF,Co,4,0,0,0,0,3,0,0
WD4-8AF-F4,F,PRCL,1,0,WD4,8AF,WD4_8AF,WD,8,AF,Co,4,0,0,0,0,3,0,0
WD4-8BE-E1,E,POHY,1,428,WD4,8BE,WD4_8BE,WD,8,BE,Co,0,4,0,0,3,0,0,0
WD4-8BE-E2,E,POHY,1,642,WD4,8BE,WD4_8BE,WD,8,BE,Co,0,4,0,0,3,0,0,0
WD4-8BE-E3,E,POHY,1,428,WD4,8BE,WD4_8BE,WD,8,BE,Co,0,4,0,0,3,0,0,0
WD4-8BE-E4,E,POHY,1,214,WD4,8BE,WD4_8BE,WD,8,BE,Co,0,4,0,0,3,0,0,0
WD4-8BF-F1,F,PRCL,1,0,WD4,8BF,WD4_8BF,WD,8,BF,Co,0,4,0,0,0,3,0,0
WD4-8BF-F2,F,PRCL,1,126.8,WD4,8BF,WD4_8BF,WD,8,BF,Co,0,4,0,0,0,3,0,0
WD4-8BF-F3,F,PRCL,1,221.9,WD4,8BF,WD4_8BF,WD,8,BF,Co,0,4,0,0,0,3,0,0
WD4-8BF-F4,F,PRCL,0,0,WD4,8BF,WD4_8BF,WD,8,BF,Co,0,4,0,0,0,3,0,0
WD4-8CE-E1,E,POHY,0,0,WD4,8CE,WD4_8CE,WD,8,CE,Co,0,0,4,0,3,0,0,0
WD4-8CE-E2,E,POHY,1,214,WD4,8CE,WD4_8CE,WD,8,CE,Co,0,0,4,0,3,0,0,0
WD4-8CE-E3,E,POHY,1,642,WD4,8CE,WD4_8CE,WD,8,CE,Co,0,0,4,0,3,0,0,0
WD4-8CE-E4,E,POHY,1,321,WD4,8CE,WD4_8CE,WD,8,CE,Co,0,0,4,0,3,0,0,0
WD4-8CF-F1,F,PRCL,1,697.4,WD4,8CF,WD4_8CF,WD,8,CF,Co,0,0,4,0,0,3,0,0
WD4-8CF-F2,F,PRCL,1,570.6,WD4,8CF,WD4_8CF,WD,8,CF,Co,0,0,4,0,0,3,0,0
WD4-8CF-F3,F,PRCL,1,380.4,WD4,8CF,WD4_8CF,WD,8,CF,Co,0,0,4,0,0,3,0,0
WD4-8CF-F4,F,PRCL,0,0,WD4,8CF,WD4_8CF,WD,8,CF,Co,0,0,4,0,0,3,0,0
WD4-8DE-E1,E,POHY,1,214,WD4,8DE,WD4_8DE,WD,8,DE,Co,0,0,0,4,3,0,0,0
WD4-8DE-E2,E,POHY,1,214,WD4,8DE,WD4_8DE,WD,8,DE,Co,0,0,0,4,3,0,0,0
WD4-8DE-E3,E,POHY,1,107,WD4,8DE,WD4_8DE,WD,8,DE,Co,0,0,0,4,3,0,0,0
WD4-8DE-E4,E,POHY,1,214,WD4,8DE,WD4_8DE,WD,8,DE,Co,0,0,0,4,3,0,0,0
WD4-8DF-F1,F,PRCL,1,126.8,WD4,8DF,WD4_8DF,WD,8,DF,Co,0,0,0,4,0,3,0,0
WD4-8DF-F2,F,PRCL,1,126.8,WD4,8DF,WD4_8DF,WD,8,DF,Co,0,0,0,4,0,3,0,0
WD4-8DF-F3,F,PRCL,1,0,WD4,8DF,WD4_8DF,WD,8,DF,Co,0,0,0,4,0,3,0,0
WD4-8DF-F4,F,PRCL,1,0,WD4,8DF,WD4_8DF,WD,8,DF,Co,0,0,0,4,0,3,0,0
WD4-8EF-E1,E,POHY,1,428,WD4,8EF,WD4_8EF,WD,8,EF,Co,0,0,0,0,3,4,0,0
WD4-8EF-E2,E,POHY,0,0,WD4,8EF,WD4_8EF,WD,8,EF,Co,0,0,0,0,3,4,0,0
WD4-8EF-E3,E,POHY,1,321,WD4,8EF,WD4_8EF,WD,8,EF,Co,0,0,0,0,3,4,0,0
WD4-8EF-E4,E,POHY,1,428,WD4,8EF,WD4_8EF,WD,8,EF,Co,0,0,0,0,3,4,0,0
WD4-8EF-F1,F,PRCL,0,0,WD4,8EF,WD4_8EF,WD,8,EF,Co,0,0,0,0,4,3,0,0
WD4-8EF-F2,F,PRCL,1,507.2,WD4,8EF,WD4_8EF,WD,8,EF,Co,0,0,0,0,4,3,0,0
WD4-8EF-F3,F,PRCL,1,190.2,WD4,8EF,WD4_8EF,WD,8,EF,Co,0,0,0,0,4,3,0,0
WD4-8EF-F4,F,PRCL,1,126.8,WD4,8EF,WD4_8EF,WD,8,EF,Co,0,0,0,0,4,3,0,0
WD4-8EG-E1,E,POHY,1,107,WD4,8EG,WD4_8EG,WD,8,EG,Co,0,0,0,0,3,0,4,0
WD4-8EG-E2,E,POHY,1,214,WD4,8EG,WD4_8EG,WD,8,EG,Co,0,0,0,0,3,0,4,0
WD4-8EG-E3,E,POHY,1,428,WD4,8EG,WD4_8EG,WD,8,EG,Co,0,0,0,0,3,0,4,0
WD4-8EG-E4,E,POHY,1,321,WD4,8EG,WD4_8EG,WD,8,EG,Co,0,0,0,0,3,0,4,0
WD4-8EH-E1,E,POHY,0,0,WD4,8EH,WD4_8EH,WD,8,EH,Co,0,0,0,0,3,0,0,4
WD4-8EH-E2,E,POHY,0,0,WD4,8EH,WD4_8EH,WD,8,EH,Co,0,0,0,0,3,0,0,4
WD4-8EH-E3,E,POHY,1,107,WD4,8EH,WD4_8EH,WD,8,EH,Co,0,0,0,0,3,0,0,4
WD4-8EH-E4,E,POHY,1,107,WD4,8EH,WD4_8EH,WD,8,EH,Co,0,0,0,0,3,0,0,4
WD4-8FG-F1,F,PRCL,1,253.6,WD4,8FG,WD4_8FG,WD,8,FG,Co,0,0,0,0,0,3,4,0
WD4-8FG-F2,F,PRCL,1,158.5,WD4,8FG,WD4_8FG,WD,8,FG,Co,0,0,0,0,0,3,4,0
WD4-8FG-F3,F,PRCL,1,126.8,WD4,8FG,WD4_8FG,WD,8,FG,Co,0,0,0,0,0,3,4,0
WD4-8FG-F4,F,PRCL,1,158.5,WD4,8FG,WD4_8FG,WD,8,FG,Co,0,0,0,0,0,3,4,0
WD4-8FH-F1,F,PRCL,1,0,WD4,8FH,WD4_8FH,WD,8,FH,Co,0,0,0,0,0,3,0,4
WD4-8FH-F2,F,PRCL,1,0,WD4,8FH,WD4_8FH,WD,8,FH,Co,0,0,0,0,0,3,0,4
WD4-8FH-F3,F,PRCL,1,0,WD4,8FH,WD4_8FH,WD,8,FH,Co,0,0,0,0,0,3,0,4
WD4-8FH-F4,F,PRCL,1,0,WD4,8FH,WD4_8FH,WD,8,FH,Co,0,0,0,0,0,3,0,4
DW3-2E-E1,E,POHY,1,856,DW3,2E,DW3_2E,DW,2,E,Mono,0,0,0,0,1,0,0,0
DW3-2E-E2,E,POHY,1,1177,DW3,2E,DW3_2E,DW,2,E,Mono,0,0,0,0,1,0,0,0
DW3-2F-F1,F,PRCL,1,1521.6,DW3,2F,DW3_2F,DW,2,F,Mono,0,0,0,0,0,1,0,0
DW3-2F-F2,F,PRCL,1,887.6,DW3,2F,DW3_2F,DW,2,F,Mono,0,0,0,0,0,1,0,0
DW3-2AE-E,E,POHY,1,749,DW3,2AE,DW3_2AE,DW,2,AE,Co,1,0,0,0,0,0,0,0
DW3-2BE-E,E,POHY,1,1070,DW3,2BE,DW3_2BE,DW,2,BE,Co,0,1,0,0,0,0,0,0
DW3-2BF-F,F,PRCL,1,1331.4,DW3,2BF,DW3_2BF,DW,2,BF,Co,0,1,0,0,0,0,0,0
DW3-2CE-E,E,POHY,1,642,DW3,2CE,DW3_2CE,DW,2,CE,Co,0,0,1,0,0,0,0,0
DW3-2CF-F,F,PRCL,1,1585,DW3,2CF,DW3_2CF,DW,2,CF,Co,0,0,1,0,0,0,0,0
DW3-2DE-E,E,POHY,1,642,DW3,2DE,DW3_2DE,DW,2,DE,Co,0,0,0,1,0,0,0,0
DW3-2DF-F,F,PRCL,1,285.3,DW3,2DF,DW3_2DF,DW,2,DF,Co,0,0,0,1,0,0,0,0
DW3-2EF-E,E,POHY,1,963,DW3,2EF,DW3_2EF,DW,2,EF,Co,0,0,0,0,0,1,0,0
DW3-2EF-F,F,PRCL,1,348.7,DW3,2EF,DW3_2EF,DW,2,EF,Co,0,0,0,0,1,0,0,0
DW3-2EG-E,E,POHY,1,856,DW3,2EG,DW3_2EG,DW,2,EG,Co,0,0,0,0,0,0,1,0
DW3-2EH-E,E,POHY,1,749,DW3,2EH,DW3_2EH,DW,2,EH,Co,0,0,0,0,0,0,0,1
DW3-2FG-F,F,PRCL,1,95.1,DW3,2FG,DW3_2FG,DW,2,FG,Co,0,0,0,0,0,0,1,0
DW3-2FH-F,F,PRCL,1,348.7,DW3,2FH,DW3_2FH,DW,2,FH,Co,0,0,0,0,0,0,0,1
DW3-4E-E1,E,POHY,1,642,DW3,4E,DW3_4E,DW,4,E,Mono,0,0,0,0,3,0,0,0
DW3-4E-E2,E,POHY,1,642,DW3,4E,DW3_4E,DW,4,E,Mono,0,0,0,0,3,0,0,0
DW3-4E-E3,E,POHY,1,428,DW3,4E,DW3_4E,DW,4,E,Mono,0,0,0,0,3,0,0,0
DW3-4E-E4,E,POHY,1,535,DW3,4E,DW3_4E,DW,4,E,Mono,0,0,0,0,3,0,0,0
DW3-4F-F1,F,PRCL,1,729.1,DW3,4F,DW3_4F,DW,4,F,Mono,0,0,0,0,0,3,0,0
DW3-4F-F2,F,PRCL,1,538.9,DW3,4F,DW3_4F,DW,4,F,Mono,0,0,0,0,0,3,0,0
DW3-4F-F3,F,PRCL,1,317,DW3,4F,DW3_4F,DW,4,F,Mono,0,0,0,0,0,3,0,0
DW3-4F-F4,F,PRCL,1,317,DW3,4F,DW3_4F,DW,4,F,Mono,0,0,0,0,0,3,0,0
DW3-4AE-E1,E,POHY,1,214,DW3,4AE,DW3_4AE,DW,4,AE,Co,2,0,0,0,1,0,0,0
DW3-4AE-E2,E,POHY,1,642,DW3,4AE,DW3_4AE,DW,4,AE,Co,2,0,0,0,1,0,0,0
DW3-4AF-F1,F,PRCL,0,0,DW3,4AF,DW3_4AF,DW,4,AF,Co,2,0,0,0,0,1,0,0
DW3-4AF-F2,F,PRCL,1,31.7,DW3,4AF,DW3_4AF,DW,4,AF,Co,2,0,0,0,0,1,0,0
DW3-4BE-E1,E,POHY,1,749,DW3,4BE,DW3_4BE,DW,4,BE,Co,0,2,0,0,1,0,0,0
DW3-4BE-E2,E,POHY,1,321,DW3,4BE,DW3_4BE,DW,4,BE,Co,0,2,0,0,1,0,0,0
DW3-4BF-F1,F,PRCL,1,1109.5,DW3,4BF,DW3_4BF,DW,4,BF,Co,0,2,0,0,0,1,0,0
DW3-4BF-F2,F,PRCL,1,412.1,DW3,4BF,DW3_4BF,DW,4,BF,Co,0,2,0,0,0,1,0,0
DW3-4CE-E1,E,POHY,1,963,DW3,4CE,DW3_4CE,DW,4,CE,Co,0,0,2,0,1,0,0,0
DW3-4CE-E2,E,POHY,1,535,DW3,4CE,DW3_4CE,DW,4,CE,Co,0,0,2,0,1,0,0,0
DW3-4CF-F1,F,PRCL,1,538.9,DW3,4CF,DW3_4CF,DW,4,CF,Co,0,0,2,0,0,1,0,0
DW3-4CF-F2,F,PRCL,1,475.5,DW3,4CF,DW3_4CF,DW,4,CF,Co,0,0,2,0,0,1,0,0
DW3-4DE-E1,E,POHY,1,321,DW3,4DE,DW3_4DE,DW,4,DE,Co,0,0,0,2,1,0,0,0
DW3-4DE-E2,E,POHY,1,214,DW3,4DE,DW3_4DE,DW,4,DE,Co,0,0,0,2,1,0,0,0
DW3-4DF-F1,F,PRCL,1,348.7,DW3,4DF,DW3_4DF,DW,4,DF,Co,0,0,0,2,0,1,0,0
DW3-4DF-F2,F,PRCL,0,0,DW3,4DF,DW3_4DF,DW,4,DF,Co,0,0,0,2,0,1,0,0
DW3-4EF-E1,E,POHY,1,535,DW3,4EF,DW3_4EF,DW,4,EF,Co,0,0,0,0,1,2,0,0
DW3-4EF-E2,E,POHY,1,749,DW3,4EF,DW3_4EF,DW,4,EF,Co,0,0,0,0,1,2,0,0
DW3-4EF-F1,F,PRCL,1,0,DW3,4EF,DW3_4EF,DW,4,EF,Co,0,0,0,0,2,1,0,0
DW3-4EF-F2,F,PRCL,1,1204.6,DW3,4EF,DW3_4EF,DW,4,EF,Co,0,0,0,0,2,1,0,0
DW3-4EG-E1,E,POHY,1,214,DW3,4EG,DW3_4EG,DW,4,EG,Co,0,0,0,0,1,0,2,0
DW3-4EG-E2,E,POHY,1,428,DW3,4EG,DW3_4EG,DW,4,EG,Co,0,0,0,0,1,0,2,0
DW3-4EH-E1,E,POHY,1,0,DW3,4EH,DW3_4EH,DW,4,EH,Co,0,0,0,0,1,0,0,2
DW3-4EH-E2,E,POHY,1,321,DW3,4EH,DW3_4EH,DW,4,EH,Co,0,0,0,0,1,0,0,2
DW3-4FG-F1,F,PRCL,1,221.9,DW3,4FG,DW3_4FG,DW,4,FG,Co,0,0,0,0,0,1,2,0
DW3-4FG-F2,F,PRCL,1,317,DW3,4FG,DW3_4FG,DW,4,FG,Co,0,0,0,0,0,1,2,0
DW3-4FH-F1,F,PRCL,1,31.7,DW3,4FH,DW3_4FH,DW,4,FH,Co,0,0,0,0,0,1,0,2
DW3-4FH-F2,F,PRCL,1,158.5,DW3,4FH,DW3_4FH,DW,4,FH,Co,0,0,0,0,0,1,0,2
DW3-8E-E1,E,POHY,1,535,DW3,8E,DW3_8E,DW,8,E,Mono,0,0,0,0,7,0,0,0
DW3-8E-E2,E,POHY,1,214,DW3,8E,DW3_8E,DW,8,E,Mono,0,0,0,0,7,0,0,0
DW3-8E-E3,E,POHY,1,107,DW3,8E,DW3_8E,DW,8,E,Mono,0,0,0,0,7,0,0,0
DW3-8E-E4,E,POHY,1,214,DW3,8E,DW3_8E,DW,8,E,Mono,0,0,0,0,7,0,0,0
DW3-8E-E5,E,POHY,1,214,DW3,8E,DW3_8E,DW,8,E,Mono,0,0,0,0,7,0,0,0
DW3-8E-E6,E,POHY,1,428,DW3,8E,DW3_8E,DW,8,E,Mono,0,0,0,0,7,0,0,0
DW3-8E-E7,E,POHY,1,321,DW3,8E,DW3_8E,DW,8,E,Mono,0,0,0,0,7,0,0,0
DW3-8E-E8,E,POHY,1,214,DW3,8E,DW3_8E,DW,8,E,Mono,0,0,0,0,7,0,0,0
DW3-8F-F1,F,PRCL,1,95.1,DW3,8F,DW3_8F,DW,8,F,Mono,0,0,0,0,0,7,0,0
DW3-8F-F2,F,PRCL,1,95.1,DW3,8F,DW3_8F,DW,8,F,Mono,0,0,0,0,0,7,0,0
DW3-8F-F3,F,PRCL,1,190.2,DW3,8F,DW3_8F,DW,8,F,Mono,0,0,0,0,0,7,0,0
DW3-8F-F4,F,PRCL,1,285.3,DW3,8F,DW3_8F,DW,8,F,Mono,0,0,0,0,0,7,0,0
DW3-8F-F5,F,PRCL,1,634,DW3,8F,DW3_8F,DW,8,F,Mono,0,0,0,0,0,7,0,0
DW3-8F-F6,F,PRCL,1,190.2,DW3,8F,DW3_8F,DW,8,F,Mono,0,0,0,0,0,7,0,0
DW3-8F-F7,F,PRCL,1,190.2,DW3,8F,DW3_8F,DW,8,F,Mono,0,0,0,0,0,7,0,0
DW3-8F-F8,F,PRCL,1,31.7,DW3,8F,DW3_8F,DW,8,F,Mono,0,0,0,0,0,7,0,0
DW3-8AE-E1,E,POHY,1,214,DW3,8AE,DW3_8AE,DW,8,AE,Co,4,0,0,0,3,0,0,0
DW3-8AE-E2,E,POHY,1,107,DW3,8AE,DW3_8AE,DW,8,AE,Co,4,0,0,0,3,0,0,0
DW3-8AE-E3,E,POHY,1,214,DW3,8AE,DW3_8AE,DW,8,AE,Co,4,0,0,0,3,0,0,0
DW3-8AE-E4,E,POHY,1,107,DW3,8AE,DW3_8AE,DW,8,AE,Co,4,0,0,0,3,0,0,0
DW3-8AF-F1,F,PRCL,1,31.7,DW3,8AF,DW3_8AF,DW,8,AF,Co,4,0,0,0,0,3,0,0
DW3-8AF-F2,F,PRCL,0,0,DW3,8AF,DW3_8AF,DW,8,AF,Co,4,0,0,0,0,3,0,0
DW3-8AF-F3,F,PRCL,1,31.7,DW3,8AF,DW3_8AF,DW,8,AF,Co,4,0,0,0,0,3,0,0
DW3-8AF-F4,F,PRCL,1,190.2,DW3,8AF,DW3_8AF,DW,8,AF,Co,4,0,0,0,0,3,0,0
DW3-8BE-E1,E,POHY,1,535,DW3,8BE,DW3_8BE,DW,8,BE,Co,0,4,0,0,3,0,0,0
DW3-8BE-E2,E,POHY,1,321,DW3,8BE,DW3_8BE,DW,8,BE,Co,0,4,0,0,3,0,0,0
DW3-8BE-E3,E,POHY,1,535,DW3,8BE,DW3_8BE,DW,8,BE,Co,0,4,0,0,3,0,0,0
DW3-8BE-E4,E,POHY,1,321,DW3,8BE,DW3_8BE,DW,8,BE,Co,0,4,0,0,3,0,0,0
DW3-8BF-F1,F,PRCL,1,317,DW3,8BF,DW3_8BF,DW,8,BF,Co,0,4,0,0,0,3,0,0
DW3-8BF-F2,F,PRCL,1,348.7,DW3,8BF,DW3_8BF,DW,8,BF,Co,0,4,0,0,0,3,0,0
DW3-8BF-F3,F,PRCL,1,221.9,DW3,8BF,DW3_8BF,DW,8,BF,Co,0,4,0,0,0,3,0,0
DW3-8BF-F4,F,PRCL,1,412.1,DW3,8BF,DW3_8BF,DW,8,BF,Co,0,4,0,0,0,3,0,0
DW3-8CE-E1,E,POHY,1,428,DW3,8CE,DW3_8CE,DW,8,CE,Co,0,0,4,0,3,0,0,0
DW3-8CE-E2,E,POHY,1,214,DW3,8CE,DW3_8CE,DW,8,CE,Co,0,0,4,0,3,0,0,0
DW3-8CE-E3,E,POHY,1,428,DW3,8CE,DW3_8CE,DW,8,CE,Co,0,0,4,0,3,0,0,0
DW3-8CE-E4,E,POHY,1,428,DW3,8CE,DW3_8CE,DW,8,CE,Co,0,0,4,0,3,0,0,0
DW3-8CF-F1,F,PRCL,0,0,DW3,8CF,DW3_8CF,DW,8,CF,Co,0,0,4,0,0,3,0,0
DW3-8CF-F2,F,PRCL,0,0,DW3,8CF,DW3_8CF,DW,8,CF,Co,0,0,4,0,0,3,0,0
DW3-8CF-F3,F,PRCL,0,0,DW3,8CF,DW3_8CF,DW,8,CF,Co,0,0,4,0,0,3,0,0
DW3-8CF-F4,F,PRCL,1,792.5,DW3,8CF,DW3_8CF,DW,8,CF,Co,0,0,4,0,0,3,0,0
DW3-8DE-E1,E,POHY,1,107,DW3,8DE,DW3_8DE,DW,8,DE,Co,0,0,0,4,3,0,0,0
DW3-8DE-E2,E,POHY,1,214,DW3,8DE,DW3_8DE,DW,8,DE,Co,0,0,0,4,3,0,0,0
DW3-8DE-E3,E,POHY,1,214,DW3,8DE,DW3_8DE,DW,8,DE,Co,0,0,0,4,3,0,0,0
DW3-8DE-E4,E,POHY,1,107,DW3,8DE,DW3_8DE,DW,8,DE,Co,0,0,0,4,3,0,0,0
DW3-8DF-F1,F,PRCL,1,190.2,DW3,8DF,DW3_8DF,DW,8,DF,Co,0,0,0,4,0,3,0,0
DW3-8DF-F2,F,PRCL,1,31.7,DW3,8DF,DW3_8DF,DW,8,DF,Co,0,0,0,4,0,3,0,0
DW3-8DF-F3,F,PRCL,1,63.4,DW3,8DF,DW3_8DF,DW,8,DF,Co,0,0,0,4,0,3,0,0
DW3-8DF-F4,F,PRCL,1,31.7,DW3,8DF,DW3_8DF,DW,8,DF,Co,0,0,0,4,0,3,0,0
DW3-8EF-E1,E,POHY,1,321,DW3,8EF,DW3_8EF,DW,8,EF,Co,0,0,0,0,3,4,0,0
DW3-8EF-E2,E,POHY,1,0,DW3,8EF,DW3_8EF,DW,8,EF,Co,0,0,0,0,3,4,0,0
DW3-8EF-E3,E,POHY,1,214,DW3,8EF,DW3_8EF,DW,8,EF,Co,0,0,0,0,3,4,0,0
DW3-8EF-E4,E,POHY,1,321,DW3,8EF,DW3_8EF,DW,8,EF,Co,0,0,0,0,3,4,0,0
DW3-8EF-F1,F,PRCL,1,317,DW3,8EF,DW3_8EF,DW,8,EF,Co,0,0,0,0,4,3,0,0
DW3-8EF-F2,F,PRCL,1,760.8,DW3,8EF,DW3_8EF,DW,8,EF,Co,0,0,0,0,4,3,0,0
DW3-8EF-F3,F,PRCL,1,221.9,DW3,8EF,DW3_8EF,DW,8,EF,Co,0,0,0,0,4,3,0,0
DW3-8EF-F4,F,PRCL,1,253.6,DW3,8EF,DW3_8EF,DW,8,EF,Co,0,0,0,0,4,3,0,0
DW3-8EG-E1,E,POHY,1,214,DW3,8EG,DW3_8EG,DW,8,EG,Co,0,0,0,0,3,0,4,0
DW3-8EG-E2,E,POHY,1,107,DW3,8EG,DW3_8EG,DW,8,EG,Co,0,0,0,0,3,0,4,0
DW3-8EG-E3,E,POHY,1,107,DW3,8EG,DW3_8EG,DW,8,EG,Co,0,0,0,0,3,0,4,0
DW3-8EG-E4,E,POHY,1,321,DW3,8EG,DW3_8EG,DW,8,EG,Co,0,0,0,0,3,0,4,0
DW3-8EH-E1,E,POHY,1,0,DW3,8EH,DW3_8EH,DW,8,EH,Co,0,0,0,0,3,0,0,4
DW3-8EH-E2,E,POHY,1,0,DW3,8EH,DW3_8EH,DW,8,EH,Co,0,0,0,0,3,0,0,4
DW3-8EH-E3,E,POHY,1,0,DW3,8EH,DW3_8EH,DW,8,EH,Co,0,0,0,0,3,0,0,4
DW3-8EH-E4,E,POHY,1,0,DW3,8EH,DW3_8EH,DW,8,EH,Co,0,0,0,0,3,0,0,4
DW3-8FG-F1,F,PRCL,1,285.3,DW3,8FG,DW3_8FG,DW,8,FG,Co,0,0,0,0,0,3,4,0
DW3-8FG-F2,F,PRCL,1,126.8,DW3,8FG,DW3_8FG,DW,8,FG,Co,0,0,0,0,0,3,4,0
DW3-8FG-F3,F,PRCL,0,0,DW3,8FG,DW3_8FG,DW,8,FG,Co,0,0,0,0,0,3,4,0
DW3-8FG-F4,F,PRCL,0,0,DW3,8FG,DW3_8FG,DW,8,FG,Co,0,0,0,0,0,3,4,0
DW3-8FH-F1,F,PRCL,0,0,DW3,8FH,DW3_8FH,DW,8,FH,Co,0,0,0,0,0,3,0,4
DW3-8FH-F2,F,PRCL,0,0,DW3,8FH,DW3_8FH,DW,8,FH,Co,0,0,0,0,0,3,0,4
DW3-8FH-F3,F,PRCL,1,0,DW3,8FH,DW3_8FH,DW,8,FH,Co,0,0,0,0,0,3,0,4
DW3-8FH-F4,F,PRCL,1,0,DW3,8FH,DW3_8FH,DW,8,FH,Co,0,0,0,0,0,3,0,4
DW4-2E-E1,E,POHY,1,642,DW4,2E,DW4_2E,DW,2,E,Mono,0,0,0,0,1,0,0,0
DW4-2E-E2,E,POHY,1,1177,DW4,2E,DW4_2E,DW,2,E,Mono,0,0,0,0,1,0,0,0
DW4-2F-F1,F,PRCL,1,824.2,DW4,2F,DW4_2F,DW,2,F,Mono,0,0,0,0,0,1,0,0
DW4-2F-F2,F,PRCL,1,538.9,DW4,2F,DW4_2F,DW,2,F,Mono,0,0,0,0,0,1,0,0
DW4-2AE-E,E,POHY,1,321,DW4,2AE,DW4_2AE,DW,2,AE,Co,1,0,0,0,0,0,0,0
DW4-2AF-F,F,PRCL,1,412.1,DW4,2AF,DW4_2AF,DW,2,AF,Co,1,0,0,0,0,0,0,0
DW4-2BE-E,E,POHY,1,1498,DW4,2BE,DW4_2BE,DW,2,BE,Co,0,1,0,0,0,0,0,0
DW4-2BF-F,F,PRCL,1,1806.9,DW4,2BF,DW4_2BF,DW,2,BF,Co,0,1,0,0,0,0,0,0
DW4-2CE-E,E,POHY,1,535,DW4,2CE,DW4_2CE,DW,2,CE,Co,0,0,1,0,0,0,0,0
DW4-2CF-F,F,PRCL,1,2282.4,DW4,2CF,DW4_2CF,DW,2,CF,Co,0,0,1,0,0,0,0,0
DW4-2DE-E,E,POHY,1,428,DW4,2DE,DW4_2DE,DW,2,DE,Co,0,0,0,1,0,0,0,0
DW4-2DF-F,F,PRCL,1,1902,DW4,2DF,DW4_2DF,DW,2,DF,Co,0,0,0,1,0,0,0,0
DW4-2EF-E,E,POHY,1,428,DW4,2EF,DW4_2EF,DW,2,EF,Co,0,0,0,0,0,1,0,0
DW4-2EF-F,F,PRCL,1,1363.1,DW4,2EF,DW4_2EF,DW,2,EF,Co,0,0,0,0,1,0,0,0
DW4-2EG-E,E,POHY,1,321,DW4,2EG,DW4_2EG,DW,2,EG,Co,0,0,0,0,0,0,1,0
DW4-2EH-E,E,POHY,1,107,DW4,2EH,DW4_2EH,DW,2,EH,Co,0,0,0,0,0,0,0,1
DW4-2FG-F,F,PRCL,1,317,DW4,2FG,DW4_2FG,DW,2,FG,Co,0,0,0,0,0,0,1,0
DW4-2FH-F,F,PRCL,1,253.6,DW4,2FH,DW4_2FH,DW,2,FH,Co,0,0,0,0,0,0,0,1
DW4-4E-E1,E,POHY,1,642,DW4,4E,DW4_4E,DW,4,E,Mono,0,0,0,0,3,0,0,0
DW4-4E-E2,E,POHY,1,321,DW4,4E,DW4_4E,DW,4,E,Mono,0,0,0,0,3,0,0,0
DW4-4E-E3,E,POHY,1,428,DW4,4E,DW4_4E,DW,4,E,Mono,0,0,0,0,3,0,0,0
DW4-4E-E4,E,POHY,1,535,DW4,4E,DW4_4E,DW,4,E,Mono,0,0,0,0,3,0,0,0
DW4-4F-F1,F,PRCL,1,570.6,DW4,4F,DW4_4F,DW,4,F,Mono,0,0,0,0,0,3,0,0
DW4-4F-F2,F,PRCL,1,126.8,DW4,4F,DW4_4F,DW,4,F,Mono,0,0,0,0,0,3,0,0
DW4-4F-F3,F,PRCL,1,253.6,DW4,4F,DW4_4F,DW,4,F,Mono,0,0,0,0,0,3,0,0
DW4-4F-F4,F,PRCL,1,665.7,DW4,4F,DW4_4F,DW,4,F,Mono,0,0,0,0,0,3,0,0
DW4-4AE-E1,E,POHY,1,642,DW4,4AE,DW4_4AE,DW,4,AE,Co,2,0,0,0,1,0,0,0
DW4-4AE-E2,E,POHY,1,321,DW4,4AE,DW4_4AE,DW,4,AE,Co,2,0,0,0,1,0,0,0
DW4-4AF-F1,F,PRCL,1,63.4,DW4,4AF,DW4_4AF,DW,4,AF,Co,2,0,0,0,0,1,0,0
DW4-4AF-F2,F,PRCL,1,285.3,DW4,4AF,DW4_4AF,DW,4,AF,Co,2,0,0,0,0,1,0,0
DW4-4BE-E1,E,POHY,1,321,DW4,4BE,DW4_4BE,DW,4,BE,Co,0,2,0,0,1,0,0,0
DW4-4BE-E2,E,POHY,1,642,DW4,4BE,DW4_4BE,DW,4,BE,Co,0,2,0,0,1,0,0,0
DW4-4BF-F1,F,PRCL,1,1046.1,DW4,4BF,DW4_4BF,DW,4,BF,Co,0,2,0,0,0,1,0,0
DW4-4BF-F2,F,PRCL,1,824.2,DW4,4BF,DW4_4BF,DW,4,BF,Co,0,2,0,0,0,1,0,0
DW4-4CE-E1,E,POHY,1,963,DW4,4CE,DW4_4CE,DW,4,CE,Co,0,0,2,0,1,0,0,0
DW4-4CE-E2,E,POHY,1,749,DW4,4CE,DW4_4CE,DW,4,CE,Co,0,0,2,0,1,0,0,0
DW4-4CF-F1,F,PRCL,1,665.7,DW4,4CF,DW4_4CF,DW,4,CF,Co,0,0,2,0,0,1,0,0
DW4-4CF-F2,F,PRCL,1,665.7,DW4,4CF,DW4_4CF,DW,4,CF,Co,0,0,2,0,0,1,0,0
DW4-4DE-E1,E,POHY,1,321,DW4,4DE,DW4_4DE,DW,4,DE,Co,0,0,0,2,1,0,0,0
DW4-4DE-E2,E,POHY,1,428,DW4,4DE,DW4_4DE,DW,4,DE,Co,0,0,0,2,1,0,0,0
DW4-4DF-F1,F,PRCL,1,538.9,DW4,4DF,DW4_4DF,DW,4,DF,Co,0,0,0,2,0,1,0,0
DW4-4DF-F2,F,PRCL,1,0,DW4,4DF,DW4_4DF,DW,4,DF,Co,0,0,0,2,0,1,0,0
DW4-4EF-E1,E,POHY,1,428,DW4,4EF,DW4_4EF,DW,4,EF,Co,0,0,0,0,1,2,0,0
DW4-4EF-E2,E,POHY,1,535,DW4,4EF,DW4_4EF,DW,4,EF,Co,0,0,0,0,1,2,0,0
DW4-4EF-F1,F,PRCL,1,412.1,DW4,4EF,DW4_4EF,DW,4,EF,Co,0,0,0,0,2,1,0,0
DW4-4EF-F2,F,PRCL,1,634,DW4,4EF,DW4_4EF,DW,4,EF,Co,0,0,0,0,2,1,0,0
DW4-4EG-E1,E,POHY,1,214,DW4,4EG,DW4_4EG,DW,4,EG,Co,0,0,0,0,1,0,2,0
DW4-4EG-E2,E,POHY,1,642,DW4,4EG,DW4_4EG,DW,4,EG,Co,0,0,0,0,1,0,2,0
DW4-4EH-E1,E,POHY,1,214,DW4,4EH,DW4_4EH,DW,4,EH,Co,0,0,0,0,1,0,0,2
DW4-4EH-E2,E,POHY,1,642,DW4,4EH,DW4_4EH,DW,4,EH,Co,0,0,0,0,1,0,0,2
DW4-4FG-F1,F,PRCL,1,0,DW4,4FG,DW4_4FG,DW,4,FG,Co,0,0,0,0,0,1,2,0
DW4-4FG-F2,F,PRCL,1,221.9,DW4,4FG,DW4_4FG,DW,4,FG,Co,0,0,0,0,0,1,2,0
DW4-4FH-F1,F,PRCL,1,253.6,DW4,4FH,DW4_4FH,DW,4,FH,Co,0,0,0,0,0,1,0,2
DW4-4FH-F2,F,PRCL,1,126.8,DW4,4FH,DW4_4FH,DW,4,FH,Co,0,0,0,0,0,1,0,2
DW4-8E-E1,E,POHY,1,428,DW4,8E,DW4_8E,DW,8,E,Mono,0,0,0,0,7,0,0,0
DW4-8E-E2,E,POHY,1,428,DW4,8E,DW4_8E,DW,8,E,Mono,0,0,0,0,7,0,0,0
DW4-8E-E3,E,POHY,1,214,DW4,8E,DW4_8E,DW,8,E,Mono,0,0,0,0,7,0,0,0