No,Sp,Species,Survival,num_seeds,Block,Pot,Pot,Raintype,Density,Composition,Culture,n_BIPI,n_OPCO,n_PHAN,n_DAAE,n_POHY,n_PRCL,n_AGCO,n_LUHY
DD3-8DH-H4,H,LUHY,1,666,DD3,8DH,DD3_8DH,DD,8,DH,Co,0,0,0,4,0,0,0,3
DD3-8EH-H1,H,LUHY,1,888,DD3,8EH,DD3_8EH,DD,8,EH,Co,0,0,0,0,4,0,0,3
DD3-8EH-H2,H,LUHY,1,1110,DD3,8EH,DD3_8EH,DD,8,EH,Co,0,0,0,0,4,0,0,3
DD3-8EH-H3,H,LUHY,1,592,DD3,8EH,DD3_8EH,DD,8,EH,Co,0,0,0,0,4,0,0,3
DD3-8EH-H4,H,LUHY,1,592,DD3,8EH,DD3_8EH,DD,8,EH,Co,0,0,0,0,4,0,0,3
DD3-8FH-H1,H,LUHY,1,814,DD3,8FH,DD3_8FH,DD,8,FH,Co,0,0,0,0,0,4,0,3
DD3-8FH-H2,H,LUHY,1,1036,DD3,8FH,DD3_8FH,DD,8,FH,Co,0,0,0,0,0,4,0,3
DD3-8FH-H3,H,LUHY,1,962,DD3,8FH,DD3_8FH,DD,8,FH,Co,0,0,0,0,0,4,0,3
DD3-8FH-H4,H,LUHY,1,296,DD3,8FH,DD3_8FH,DD,8,FH,Co,0,0,0,0,0,4,0,3
DD3-8GH-H1,H,LUHY,1,518,DD3,8GH,DD3_8GH,DD,8,GH,Co,0,0,0,0,0,0,4,3
DD3-8GH-H2,H,LUHY,1,666,DD3,8GH,DD3_8GH,DD,8,GH,Co,0,0,0,0,0,0,4,3
DD3-8GH-H3,H,LUHY,1,888,DD3,8GH,DD3_8GH,DD,8,GH,Co,0,0,0,0,0,0,4,3
DD3-8GH-H4,H,LUHY,1,518,DD3,8GH,DD3_8GH,DD,8,GH,Co,0,0,0,0,0,0,4,3
DD4-2B-B1,B,OPCO,1,325.94,DD4,2B,DD4_2B,DD,2,B,Mono,0,1,0,0,0,0,0,0
DD4-2B-B2,B,OPCO,1,0,DD4,2B,DD4_2B,DD,2,B,Mono,0,1,0,0,0,0,0,0
DD4-2H-H1,H,LUHY,1,3256,DD4,2H,DD4_2H,DD,2,H,Mono,0,0,0,0,0,0,0,1
DD4-2H-H2,H,LUHY,1,1406,DD4,2H,DD4_2H,DD,2,H,Mono,0,0,0,0,0,0,0,1
DD4-2AB-B,B,OPCO,1,90.96,DD4,2AB,DD4_2AB,DD,2,AB,Co,1,0,0,0,0,0,0,0
DD4-2AH-H,H,LUHY,1,1258,DD4,2AH,DD4_2AH,DD,2,AH,Co,1,0,0,0,0,0,0,0
DD4-2BC-B,B,OPCO,1,250.14,DD4,2BC,DD4_2BC,DD,2,BC,Co,0,0,1,0,0,0,0,0
DD4-2BD-B,B,OPCO,1,0,DD4,2BD,DD4_2BD,DD,2,BD,Co,0,0,0,1,0,0,0,0
DD4-2BE-B,B,OPCO,1,394.16,DD4,2BE,DD4_2BE,DD,2,BE,Co,0,0,0,0,1,0,0,0
DD4-2BF-B,B,OPCO,1,68.22,DD4,2BF,DD4_2BF,DD,2,BF,Co,0,0,0,0,0,1,0,0
DD4-2BG-B,B,OPCO,1,30.32,DD4,2BG,DD4_2BG,DD,2,BG,Co,0,0,0,0,0,0,1,0
DD4-2BH-B,B,OPCO,1,37.9,DD4,2BH,DD4_2BH,DD,2,BH,Co,0,0,0,0,0,0,0,1
DD4-2BH-H,H,LUHY,1,4144,DD4,2BH,DD4_2BH,DD,2,BH,Co,0,1,0,0,0,0,0,0
DD4-2CH-H,H,LUHY,1,1554,DD4,2CH,DD4_2CH,DD,2,CH,Co,0,0,1,0,0,0,0,0
DD4-2DH-H,H,LUHY,1,2516,DD4,2DH,DD4_2DH,DD,2,DH,Co,0,0,0,1,0,0,0,0
DD4-2EH-H,H,LUHY,1,2738,DD4,2EH,DD4_2EH,DD,2,EH,Co,0,0,0,0,1,0,0,0
DD4-2FH-H,H,LUHY,1,1480,DD4,2FH,DD4_2FH,DD,2,FH,Co,0,0,0,0,0,1,0,0
DD4-2GH-H,H,LUHY,1,3848,DD4,2GH,DD4_2GH,DD,2,GH,Co,0,0,0,0,0,0,1,0
DD4-4B-B1,B,OPCO,1,136.44,DD4,4B,DD4_4B,DD,4,B,Mono,0,3,0,0,0,0,0,0
DD4-4B-B2,B,OPCO,1,45.48,DD4,4B,DD4_4B,DD,4,B,Mono,0,3,0,0,0,0,0,0
DD4-4B-B3,B,OPCO,1,0,DD4,4B,DD4_4B,DD,4,B,Mono,0,3,0,0,0,0,0,0
DD4-4B-B4,B,OPCO,1,106.12,DD4,4B,DD4_4B,DD,4,B,Mono,0,3,0,0,0,0,0,0
DD4-4H-H1,H,LUHY,1,74,DD4,4H,DD4_4H,DD,4,H,Mono,0,0,0,0,0,0,0,3
DD4-4H-H2,H,LUHY,1,962,DD4,4H,DD4_4H,DD,4,H,Mono,0,0,0,0,0,0,0,3
DD4-4H-H3,H,LUHY,1,740,DD4,4H,DD4_4H,DD,4,H,Mono,0,0,0,0,0,0,0,3
DD4-4H-H4,H,LUHY,1,888,DD4,4H,DD4_4H,DD,4,H,Mono,0,0,0,0,0,0,0,3
DD4-4AB-B1,B,OPCO,1,0,DD4,4AB,DD4_4AB,DD,4,AB,Co,2,1,0,0,0,0,0,0
DD4-4AB-B2,B,OPCO,1,37.9,DD4,4AB,DD4_4AB,DD,4,AB,Co,2,1,0,0,0,0,0,0
DD4-4AH-H1,H,LUHY,1,962,DD4,4AH,DD4_4AH,DD,4,AH,Co,2,0,0,0,0,0,0,1
DD4-4AH-H2,H,LUHY,1,666,DD4,4AH,DD4_4AH,DD,4,AH,Co,2,0,0,0,0,0,0,1
DD4-4BC-B1,B,OPCO,1,0,DD4,4BC,DD4_4BC,DD,4,BC,Co,0,1,2,0,0,0,0,0
DD4-4BC-B2,B,OPCO,1,197.08,DD4,4BC,DD4_4BC,DD,4,BC,Co,0,1,2,0,0,0,0,0
DD4-4BD-B1,B,OPCO,1,53.06,DD4,4BD,DD4_4BD,DD,4,BD,Co,0,1,0,2,0,0,0,0
DD4-4BD-B2,B,OPCO,1,30.32,DD4,4BD,DD4_4BD,DD,4,BD,Co,0,1,0,2,0,0,0,0
DD4-4BE-B1,B,OPCO,1,0,DD4,4BE,DD4_4BE,DD,4,BE,Co,0,1,0,0,2,0,0,0
DD4-4BE-B2,B,OPCO,1,0,DD4,4BE,DD4_4BE,DD,4,BE,Co,0,1,0,0,2,0,0,0
DD4-4BF-B1,B,OPCO,1,0,DD4,4BF,DD4_4BF,DD,4,BF,Co,0,1,0,0,0,2,0,0
DD4-4BF-B2,B,OPCO,1,136.44,DD4,4BF,DD4_4BF,DD,4,BF,Co,0,1,0,0,0,2,0,0
DD4-4BG-B1,B,OPCO,1,0,DD4,4BG,DD4_4BG,DD,4,BG,Co,0,1,0,0,0,0,2,0
DD4-4BG-B2,B,OPCO,1,0,DD4,4BG,DD4_4BG,DD,4,BG,Co,0,1,0,0,0,0,2,0
DD4-4BH-B1,B,OPCO,1,0,DD4,4BH,DD4_4BH,DD,4,BH,Co,0,1,0,0,0,0,0,2
DD4-4BH-B2,B,OPCO,1,0,DD4,4BH,DD4_4BH,DD,4,BH,Co,0,1,0,0,0,0,0,2
DD4-4BH-H1,H,LUHY,1,1036,DD4,4BH,DD4_4BH,DD,4,BH,Co,0,2,0,0,0,0,0,1
DD4-4BH-H2,H,LUHY,1,1036,DD4,4BH,DD4_4BH,DD,4,BH,Co,0,2,0,0,0,0,0,1
DD4-4CH-H1,H,LUHY,1,1702,DD4,4CH,DD4_4CH,DD,4,CH,Co,0,0,2,0,0,0,0,1
DD4-4CH-H2,H,LUHY,1,1258,DD4,4CH,DD4_4CH,DD,4,CH,Co,0,0,2,0,0,0,0,1
DD4-4DH-H1,H,LUHY,1,2812,DD4,4DH,DD4_4DH,DD,4,DH,Co,0,0,0,2,0,0,0,1
DD4-4DH-H2,H,LUHY,1,3034,DD4,4DH,DD4_4DH,DD,4,DH,Co,0,0,0,2,0,0,0,1
DD4-4EH-H1,H,LUHY,1,1332,DD4,4EH,DD4_4EH,DD,4,EH,Co,0,0,0,0,2,0,0,1
DD4-4EH-H2,H,LUHY,1,2664,DD4,4EH,DD4_4EH,DD,4,EH,Co,0,0,0,0,2,0,0,1
DD4-4FH-H1,H,LUHY,1,1406,DD4,4FH,DD4_4FH,DD,4,FH,Co,0,0,0,0,0,2,0,1
DD4-4FH-H2,H,LUHY,1,814,DD4,4FH,DD4_4FH,DD,4,FH,Co,0,0,0,0,0,2,0,1
DD4-4GH-H1,H,LUHY,1,1702,DD4,4GH,DD4_4GH,DD,4,GH,Co,0,0,0,0,0,0,2,1
DD4-4GH-H2,H,LUHY,1,666,DD4,4GH,DD4_4GH,DD,4,GH,Co,0,0,0,0,0,0,2,1
DD4-8B-B1,B,OPCO,1,60.64,DD4,8B,DD4_8B,DD,8,B,Mono,0,7,0,0,0,0,0,0
DD4-8B-B2,B,OPCO,1,22.74,DD4,8B,DD4_8B,DD,8,B,Mono,0,7,0,0,0,0,0,0
DD4-8B-B3,B,OPCO,1,60.64,DD4,8B,DD4_8B,DD,8,B,Mono,0,7,0,0,0,0,0,0
DD4-8B-B4,B,OPCO,1,53.06,DD4,8B,DD4_8B,DD,8,B,Mono,0,7,0,0,0,0,0,0
DD4-8B-B5,B,OPCO,1,30.32,DD4,8B,DD4_8B,DD,8,B,Mono,0,7,0,0,0,0,0,0
DD4-8B-B6,B,OPCO,1,60.64,DD4,8B,DD4_8B,DD,8,B,Mono,0,7,0,0,0,0,0,0
DD4-8B-B7,B,OPCO,1,30.32,DD4,8B,DD4_8B,DD,8,B,Mono,0,7,0,0,0,0,0,0
DD4-8B-B8,B,OPCO,1,30.32,DD4,8B,DD4_8B,DD,8,B,Mono,0,7,0,0,0,0,0,0
DD4-8H-H1,H,LUHY,1,518,DD4,8H,DD4_8H,DD,8,H,Mono,0,0,7,0,0,0,0,0
DD4-8H-H2,H,LUHY,1,518,DD4,8H,DD4_8H,DD,8,H,Mono,0,0,7,0,0,0,0,0
DD4-8H-H3,H,LUHY,1,518,DD4,8H,DD4_8H,DD,8,H,Mono,0,0,7,0,0,0,0,0
DD4-8H-H4,H,LUHY,1,0,DD4,8H,DD4_8H,DD,8,H,Mono,0,0,7,0,0,0,0,0
DD4-8H-H5,H,LUHY,1,518,DD4,8H,DD4_8H,DD,8,H,Mono,0,0,7,0,0,0,0,0
DD4-8H-H6,H,LUHY,1,222,DD4,8H,DD4_8H,DD,8,H,Mono,0,0,7,0,0,0,0,0
DD4-8H-H7,H,LUHY,1,666,DD4,8H,DD4_8H,DD,8,H,Mono,0,0,7,0,0,0,0,0
DD4-8H-H8,H,LUHY,1,444,DD4,8H,DD4_8H,DD,8,H,Mono,0,0,7,0,0,0,0,0
DD4-8AB-B1,B,OPCO,1,0,DD4,8AB,DD4_8AB,DD,8,AB,Co,4,3,0,0,0,0,0,0
DD4-8AB-B2,B,OPCO,1,0,DD4,8AB,DD4_8AB,DD,8,AB,Co,4,3,0,0,0,0,0,0
DD4-8AB-B3,B,OPCO,1,0,DD4,8AB,DD4_8AB,DD,8,AB,Co,4,3,0,0,0,0,0,0
DD4-8AB-B4,B,OPCO,1,0,DD4,8AB,DD4_8AB,DD,8,AB,Co,4,3,0,0,0,0,0,0
DD4-8AH-H1,H,LUHY,1,666,DD4,8AH,DD4_8AH,DD,8,AH,Co,4,0,0,0,0,0,0,3
DD4-8AH-H2,H,LUHY,1,296,DD4,8AH,DD4_8AH,DD,8,AH,Co,4,0,0,0,0,0,0,3
DD4-8AH-H3,H,LUHY,1,370,DD4,8AH,DD4_8AH,DD,8,AH,Co,4,0,0,0,0,0,0,3
DD4-8AH-H4,H,LUHY,1,148,DD4,8AH,DD4_8AH,DD,8,AH,Co,4,0,0,0,0,0,0,3
DD4-8BC-B1,B,OPCO,1,121.28,DD4,8BC,DD4_8BC,DD,8,BC,Co,0,3,4,0,0,0,0,0
DD4-8BC-B2,B,OPCO,1,197.08,DD4,8BC,DD4_8BC,DD,8,BC,Co,0,3,4,0,0,0,0,0
DD4-8BC-B3,B,OPCO,1,0,DD4,8BC,DD4_8BC,DD,8,BC,Co,0,3,4,0,0,0,0,0
DD4-8BC-B4,B,OPCO,1,45.48,DD4,8BC,DD4_8BC,DD,8,BC,Co,0,3,4,0,0,0,0,0
DD4-8BD-B1,B,OPCO,1,0,DD4,8BD,DD4_8BD,DD,8,BD,Co,0,3,0,4,0,0,0,0
DD4-8BD-B2,B,OPCO,1,0,DD4,8BD,DD4_8BD,DD,8,BD,Co,0,3,0,4,0,0,0,0
DD4-8BD-B3,B,OPCO,1,0,DD4,8BD,DD4_8BD,DD,8,BD,Co,0,3,0,4,0,0,0,0
DD4-8BD-B4,B,OPCO,1,0,DD4,8BD,DD4_8BD,DD,8,BD,Co,0,3,0,4,0,0,0,0
DD4-8BE-B1,B,OPCO,1,0,DD4,8BE,DD4_8BE,DD,8,BE,Co,0,3,0,0,4,0,0,0
DD4-8BE-B2,B,OPCO,1,0,DD4,8BE,DD4_8BE,DD,8,BE,Co,0,3,0,0,4,0,0,0
DD4-8BE-B3,B,OPCO,1,0,DD4,8BE,DD4_8BE,DD,8,BE,Co,0,3,0,0,4,0,0,0
DD4-8BE-B4,B,OPCO,1,53.06,DD4,8BE,DD4_8BE,DD,8,BE,Co,0,3,0,0,4,0,0,0
DD4-8BF-B1,B,OPCO,1,0,DD4,8BF,DD4_8BF,DD,8,BF,Co,0,3,0,0,0,4,0,0
DD4-8BF-B2,B,OPCO,1,22.74,DD4,8BF,DD4_8BF,DD,8,BF,Co,0,3,0,0,0,4,0,0
DD4-8BF-B3,B,OPCO,1,68.22,DD4,8BF,DD4_8BF,DD,8,BF,Co,0,3,0,0,0,4,0,0
DD4-8BF-B4,B,OPCO,1,90.96,DD4,8BF,DD4_8BF,DD,8,BF,Co,0,3,0,0,0,4,0,0
DD4-8BG-B1,B,OPCO,1,136.44,DD4,8BG,DD4_8BG,DD,8,BG,Co,0,3,0,0,0,0,4,0
DD4-8BG-B2,B,OPCO,1,83.38,DD4,8BG,DD4_8BG,DD,8,BG,Co,0,3,0,0,0,0,4,0
DD4-8BG-B3,B,OPCO,1,0,DD4,8BG,DD4_8BG,DD,8,BG,Co,0,3,0,0,0,0,4,0
DD4-8BG-B4,B,OPCO,0,0,DD4,8BG,DD4_8BG,DD,8,BG,Co,0,3,0,0,0,0,4,0
DD4-8BH-B1,B,OPCO,1,0,DD4,8BH,DD4_8BH,DD,8,BH,Co,0,3,0,0,0,0,0,4
DD4-8BH-B2,B,OPCO,1,0,DD4,8BH,DD4_8BH,DD,8,BH,Co,0,3,0,0,0,0,0,4
DD4-8BH-B3,B,OPCO,1,0,DD4,8BH,DD4_8BH,DD,8,BH,Co,0,3,0,0,0,0,0,4
DD4-8BH-B4,B,OPCO,1,0,DD4,8BH,DD4_8BH,DD,8,BH,Co,0,3,0,0,0,0,0,4
DD4-8BH-H1,H,LUHY,1,814,DD4,8BH,DD4_8BH,DD,8,BH,Co,0,4,0,0,0,0,0,3
DD4-8BH-H2,H,LUHY,1,222,DD4,8BH,DD4_8BH,DD,8,BH,Co,0,4,0,0,0,0,0,3
DD4-8BH-H3,H,LUHY,1,962,DD4,8BH,DD4_8BH,DD,8,BH,Co,0,4,0,0,0,0,0,3
DD4-8BH-H4,H,LUHY,1,740,DD4,8BH,DD4_8BH,DD,8,BH,Co,0,4,0,0,0,0,0,3
DD4-8CH-H1,H,LUHY,1,370,DD4,8CH,DD4_8CH,DD,8,CH,Co,0,0,4,0,0,0,0,3
DD4-8CH-H2,H,LUHY,1,740,DD4,8CH,DD4_8CH,DD,8,CH,Co,0,0,4,0,0,0,0,3
DD4-8CH-H3,H,LUHY,1,296,DD4,8CH,DD4_8CH,DD,8,CH,Co,0,0,4,0,0,0,0,3
DD4-8CH-H4,H,LUHY,1,444,DD4,8CH,DD4_8CH,DD,8,CH,Co,0,0,4,0,0,0,0,3
DD4-8DH-H1,H,LUHY,1,148,DD4,8DH,DD4_8DH,DD,8,DH,Co,0,0,0,4,0,0,0,3
DD4-8DH-H2,H,LUHY,1,518,DD4,8DH,DD4_8DH,DD,8,DH,Co,0,0,0,4,0,0,0,3
DD4-8DH-H3,H,LUHY,1,222,DD4,8DH,DD4_8DH,DD,8,DH,Co,0,0,0,4,0,0,0,3
DD4-8DH-H4,H,LUHY,1,962,DD4,8DH,DD4_8DH,DD,8,DH,Co,0,0,0,4,0,0,0,3
DD4-8EH-H1,H,LUHY,1,518,DD4,8EH,DD4_8EH,DD,8,EH,Co,0,0,0,0,4,0,0,3
DD4-8EH-H2,H,LUHY,1,592,DD4,8EH,DD4_8EH,DD,8,EH,Co,0,0,0,0,4,0,0,3
DD4-8EH-H3,H,LUHY,1,592,DD4,8EH,DD4_8EH,DD,8,EH,Co,0,0,0,0,4,0,0,3
DD4-8EH-H4,H,LUHY,1,666,DD4,8EH,DD4_8EH,DD,8,EH,Co,0,0,0,0,4,0,0,3
DD4-8FH-H1,H,LUHY,1,592,DD4,8FH,DD4_8FH,DD,8,FH,Co,0,0,0,0,0,4,0,3
DD4-8FH-H2,H,LUHY,1,1184,DD4,8FH,DD4_8FH,DD,8,FH,Co,0,0,0,0,0,4,0,3
DD4-8FH-H3,H,LUHY,1,814,DD4,8FH,DD4_8FH,DD,8,FH,Co,0,0,0,0,0,4,0,3
DD4-8FH-H4,H,LUHY,1,1332,DD4,8FH,DD4_8FH,DD,8,FH,Co,0,0,0,0,0,4,0,3
DD4-8GH-H1,H,LUHY,1,1036,DD4,8GH,DD4_8GH,DD,8,GH,Co,0,0,0,0,0,0,4,3
DD4-8GH-H2,H,LUHY,1,1110,DD4,8GH,DD4_8GH,DD,8,GH,Co,0,0,0,0,0,0,4,3
DD4-8GH-H3,H,LUHY,1,888,DD4,8GH,DD4_8GH,DD,8,GH,Co,0,0,0,0,0,0,4,3
DD4-8GH-H4,H,LUHY,1,370,DD4,8GH,DD4_8GH,DD,8,GH,Co,0,0,0,0,0,0,4,3