No,Sp,Species,Survival,num_seeds,Block,Pot,Pot,Raintype,Density,Composition,Culture,n_BIPI,n_OPCO,n_PHAN,n_DAAE,n_POHY,n_PRCL,n_AGCO,n_LUHY
WW4-8G-G5,G,AGCO,1,0,WW4,8G,WW4_8G,WW,8,G,Mono,0,0,0,0,0,0,7,0
WW4-8G-G6,G,AGCO,1,0,WW4,8G,WW4_8G,WW,8,G,Mono,0,0,0,0,0,0,7,0
WW4-8G-G7,G,AGCO,1,0,WW4,8G,WW4_8G,WW,8,G,Mono,0,0,0,0,0,0,7,0
WW4-8G-G8,G,AGCO,1,0,WW4,8G,WW4_8G,WW,8,G,Mono,0,0,0,0,0,0,7,0
WW4-8AB-A1,A,BIPI,1,0,WW4,8AB,WW4_8AB,WW,8,AB,Co,3,4,0,0,0,0,0,0
WW4-8AB-A2,A,BIPI,1,101.4,WW4,8AB,WW4_8AB,WW,8,AB,Co,3,4,0,0,0,0,0,0
WW4-8AB-A3,A,BIPI,1,0,WW4,8AB,WW4_8AB,WW,8,AB,Co,3,4,0,0,0,0,0,0
WW4-8AB-A4,A,BIPI,1,152.1,WW4,8AB,WW4_8AB,WW,8,AB,Co,3,4,0,0,0,0,0,0
WW4-8AC-A1,A,BIPI,1,101.4,WW4,8AC,WW4_8AC,WW,8,AC,Co,3,0,4,0,0,0,0,0
WW4-8AC-A2,A,BIPI,1,0,WW4,8AC,WW4_8AC,WW,8,AC,Co,3,0,4,0,0,0,0,0
WW4-8AC-A3,A,BIPI,1,0,WW4,8AC,WW4_8AC,WW,8,AC,Co,3,0,4,0,0,0,0,0
WW4-8AC-A4,A,BIPI,1,0,WW4,8AC,WW4_8AC,WW,8,AC,Co,3,0,4,0,0,0,0,0
WW4-8AD-A1,A,BIPI,1,0,WW4,8AD,WW4_8AD,WW,8,AD,Co,3,0,0,4,0,0,0,0
WW4-8AD-A2,A,BIPI,1,0,WW4,8AD,WW4_8AD,WW,8,AD,Co,3,0,0,4,0,0,0,0
WW4-8AD-A3,A,BIPI,1,0,WW4,8AD,WW4_8AD,WW,8,AD,Co,3,0,0,4,0,0,0,0
WW4-8AD-A4,A,BIPI,1,50.7,WW4,8AD,WW4_8AD,WW,8,AD,Co,3,0,0,4,0,0,0,0
WW4-8AE-A1,A,BIPI,1,0,WW4,8AE,WW4_8AE,WW,8,AE,Co,3,0,0,0,4,0,0,0
WW4-8AE-A2,A,BIPI,1,0,WW4,8AE,WW4_8AE,WW,8,AE,Co,3,0,0,0,4,0,0,0
WW4-8AE-A3,A,BIPI,1,0,WW4,8AE,WW4_8AE,WW,8,AE,Co,3,0,0,0,4,0,0,0
WW4-8AE-A4,A,BIPI,1,0,WW4,8AE,WW4_8AE,WW,8,AE,Co,3,0,0,0,4,0,0,0
WW4-8AF-A1,A,BIPI,1,0,WW4,8AF,WW4_8AF,WW,8,AF,Co,3,0,0,0,0,4,0,0
WW4-8AF-A2,A,BIPI,1,0,WW4,8AF,WW4_8AF,WW,8,AF,Co,3,0,0,0,0,4,0,0
WW4-8AF-A3,A,BIPI,1,0,WW4,8AF,WW4_8AF,WW,8,AF,Co,3,0,0,0,0,4,0,0
WW4-8AF-A4,A,BIPI,1,0,WW4,8AF,WW4_8AF,WW,8,AF,Co,3,0,0,0,0,4,0,0
WW4-8AG-A1,A,BIPI,1,0,WW4,8AG,WW4_8AG,WW,8,AG,Co,3,0,0,0,0,0,4,0
WW4-8AG-A2,A,BIPI,1,0,WW4,8AG,WW4_8AG,WW,8,AG,Co,3,0,0,0,0,0,4,0
WW4-8AG-A3,A,BIPI,1,152.1,WW4,8AG,WW4_8AG,WW,8,AG,Co,3,0,0,0,0,0,4,0
WW4-8AG-A4,A,BIPI,1,0,WW4,8AG,WW4_8AG,WW,8,AG,Co,3,0,0,0,0,0,4,0
WW4-8AG-G1,G,AGCO,1,0,WW4,8AG,WW4_8AG,WW,8,AG,Co,4,0,0,0,0,0,3,0
WW4-8AG-G2,G,AGCO,1,0,WW4,8AG,WW4_8AG,WW,8,AG,Co,4,0,0,0,0,0,3,0
WW4-8AG-G3,G,AGCO,1,0,WW4,8AG,WW4_8AG,WW,8,AG,Co,4,0,0,0,0,0,3,0
WW4-8AG-G4,G,AGCO,1,0,WW4,8AG,WW4_8AG,WW,8,AG,Co,4,0,0,0,0,0,3,0
WW4-8AH-A1,A,BIPI,1,0,WW4,8AH,WW4_8AH,WW,8,AH,Co,3,0,0,0,0,0,0,4
WW4-8AH-A2,A,BIPI,1,0,WW4,8AH,WW4_8AH,WW,8,AH,Co,3,0,0,0,0,0,0,4
WW4-8AH-A3,A,BIPI,1,0,WW4,8AH,WW4_8AH,WW,8,AH,Co,3,0,0,0,0,0,0,4
WW4-8AH-A4,A,BIPI,0,0,WW4,8AH,WW4_8AH,WW,8,AH,Co,3,0,0,0,0,0,0,4
WW4-8BG-G1,G,AGCO,1,0,WW4,8BG,WW4_8BG,WW,8,BG,Co,0,4,0,0,0,0,3,0
WW4-8BG-G2,G,AGCO,1,0,WW4,8BG,WW4_8BG,WW,8,BG,Co,0,4,0,0,0,0,3,0
WW4-8BG-G3,G,AGCO,1,658.4,WW4,8BG,WW4_8BG,WW,8,BG,Co,0,4,0,0,0,0,3,0
WW4-8BG-G4,G,AGCO,0,0,WW4,8BG,WW4_8BG,WW,8,BG,Co,0,4,0,0,0,0,3,0
WW4-8CG-G1,G,AGCO,1,0,WW4,8CG,WW4_8CG,WW,8,CG,Co,0,0,4,0,0,0,3,0
WW4-8CG-G2,G,AGCO,0,0,WW4,8CG,WW4_8CG,WW,8,CG,Co,0,0,4,0,0,0,3,0
WW4-8CG-G3,G,AGCO,1,0,WW4,8CG,WW4_8CG,WW,8,CG,Co,0,0,4,0,0,0,3,0
WW4-8CG-G4,G,AGCO,1,0,WW4,8CG,WW4_8CG,WW,8,CG,Co,0,0,4,0,0,0,3,0
WW4-8DG-G1,G,AGCO,1,411.5,WW4,8DG,WW4_8DG,WW,8,DG,Co,0,0,0,4,0,0,3,0
WW4-8DG-G2,G,AGCO,1,329.2,WW4,8DG,WW4_8DG,WW,8,DG,Co,0,0,0,4,0,0,3,0
WW4-8DG-G3,G,AGCO,1,0,WW4,8DG,WW4_8DG,WW,8,DG,Co,0,0,0,4,0,0,3,0
WW4-8DG-G4,G,AGCO,1,0,WW4,8DG,WW4_8DG,WW,8,DG,Co,0,0,0,4,0,0,3,0
WW4-8EG-G1,G,AGCO,1,0,WW4,8EG,WW4_8EG,WW,8,EG,Co,0,0,0,0,4,0,3,0
WW4-8EG-G2,G,AGCO,0,0,WW4,8EG,WW4_8EG,WW,8,EG,Co,0,0,0,0,4,0,3,0
WW4-8EG-G3,G,AGCO,0,0,WW4,8EG,WW4_8EG,WW,8,EG,Co,0,0,0,0,4,0,3,0
WW4-8EG-G4,G,AGCO,1,0,WW4,8EG,WW4_8EG,WW,8,EG,Co,0,0,0,0,4,0,3,0
WW4-8FG-G1,G,AGCO,1,658.4,WW4,8FG,WW4_8FG,WW,8,FG,Co,0,0,0,0,0,4,3,0
WW4-8FG-G2,G,AGCO,1,0,WW4,8FG,WW4_8FG,WW,8,FG,Co,0,0,0,0,0,4,3,0
WW4-8FG-G3,G,AGCO,1,0,WW4,8FG,WW4_8FG,WW,8,FG,Co,0,0,0,0,0,4,3,0
WW4-8FG-G4,G,AGCO,0,0,WW4,8FG,WW4_8FG,WW,8,FG,Co,0,0,0,0,0,4,3,0
WW4-8GH-G1,G,AGCO,1,0,WW4,8GH,WW4_8GH,WW,8,GH,Co,0,0,0,0,0,0,3,4
WW4-8GH-G2,G,AGCO,1,0,WW4,8GH,WW4_8GH,WW,8,GH,Co,0,0,0,0,0,0,3,4
WW4-8GH-G3,G,AGCO,1,0,WW4,8GH,WW4_8GH,WW,8,GH,Co,0,0,0,0,0,0,3,4
WW4-8GH-G4,G,AGCO,0,0,WW4,8GH,WW4_8GH,WW,8,GH,Co,0,0,0,0,0,0,3,4
WD3-2A-A1,A,BIPI,1,0,WD3,2A,WD3_2A,WD,2,A,Mono,1,0,0,0,0,0,0,0
WD3-2A-A2,A,BIPI,0,0,WD3,2A,WD3_2A,WD,2,A,Mono,1,0,0,0,0,0,0,0
WD3-2G-G1,G,AGCO,1,411.5,WD3,2G,WD3_2G,WD,2,G,Mono,0,0,0,0,0,0,1,0
WD3-2G-G2,G,AGCO,1,0,WD3,2G,WD3_2G,WD,2,G,Mono,0,0,0,0,0,0,1,0
WD3-2AB-A,A,BIPI,0,0,WD3,2AB,WD3_2AB,WD,2,AB,Co,0,1,0,0,0,0,0,0
WD3-2AC-A,A,BIPI,1,811.2,WD3,2AC,WD3_2AC,WD,2,AC,Co,0,0,1,0,0,0,0,0
WD3-2AD-A,A,BIPI,1,304.2,WD3,2AD,WD3_2AD,WD,2,AD,Co,0,0,0,1,0,0,0,0
WD3-2AE-A,A,BIPI,1,456.3,WD3,2AE,WD3_2AE,WD,2,AE,Co,0,0,0,0,1,0,0,0
WD3-2AF-A,A,BIPI,1,152.1,WD3,2AF,WD3_2AF,WD,2,AF,Co,0,0,0,0,0,1,0,0
WD3-2AG-A,A,BIPI,1,253.5,WD3,2AG,WD3_2AG,WD,2,AG,Co,0,0,0,0,0,0,1,0
WD3-2AG-G,G,AGCO,1,0,WD3,2AG,WD3_2AG,WD,2,AG,Co,1,0,0,0,0,0,0,0
WD3-2AH-A,A,BIPI,1,152.1,WD3,2AH,WD3_2AH,WD,2,AH,Co,0,0,0,0,0,0,0,1
WD3-2BG-G,G,AGCO,1,1152.2,WD3,2BG,WD3_2BG,WD,2,BG,Co,0,1,0,0,0,0,0,0
WD3-2CG-G,G,AGCO,1,1152.2,WD3,2CG,WD3_2CG,WD,2,CG,Co,0,0,1,0,0,0,0,0
WD3-2DG-G,G,AGCO,1,658.4,WD3,2DG,WD3_2DG,WD,2,DG,Co,0,0,0,1,0,0,0,0
WD3-2EG-G,G,AGCO,1,1481.4,WD3,2EG,WD3_2EG,WD,2,EG,Co,0,0,0,0,1,0,0,0
WD3-2FG-G,G,AGCO,1,493.8,WD3,2FG,WD3_2FG,WD,2,FG,Co,0,0,0,0,0,1,0,0
WD3-2GH-G,G,AGCO,1,0,WD3,2GH,WD3_2GH,WD,2,GH,Co,0,0,0,0,0,0,0,1
WD3-4A-A1,A,BIPI,1,0,WD3,4A,WD3_4A,WD,4,A,Mono,3,0,0,0,0,0,0,0
WD3-4A-A2,A,BIPI,1,0,WD3,4A,WD3_4A,WD,4,A,Mono,3,0,0,0,0,0,0,0
WD3-4A-A3,A,BIPI,1,0,WD3,4A,WD3_4A,WD,4,A,Mono,3,0,0,0,0,0,0,0
WD3-4A-A4,A,BIPI,1,0,WD3,4A,WD3_4A,WD,4,A,Mono,3,0,0,0,0,0,0,0
WD3-4G-G1,G,AGCO,1,0,WD3,4G,WD3_4G,WD,4,G,Mono,0,0,0,0,0,0,3,0
WD3-4G-G2,G,AGCO,1,0,WD3,4G,WD3_4G,WD,4,G,Mono,0,0,0,0,0,0,3,0
WD3-4G-G3,G,AGCO,1,0,WD3,4G,WD3_4G,WD,4,G,Mono,0,0,0,0,0,0,3,0
WD3-4G-G4,G,AGCO,1,0,WD3,4G,WD3_4G,WD,4,G,Mono,0,0,0,0,0,0,3,0
WD3-4AB-A1,A,BIPI,1,101.4,WD3,4AB,WD3_4AB,WD,4,AB,Co,1,2,0,0,0,0,0,0
WD3-4AB-A2,A,BIPI,1,0,WD3,4AB,WD3_4AB,WD,4,AB,Co,1,2,0,0,0,0,0,0
WD3-4AC-A1,A,BIPI,1,202.8,WD3,4AC,WD3_4AC,WD,4,AC,Co,1,0,2,0,0,0,0,0
WD3-4AC-A2,A,BIPI,1,354.9,WD3,4AC,WD3_4AC,WD,4,AC,Co,1,0,2,0,0,0,0,0
WD3-4AD-A1,A,BIPI,1,253.5,WD3,4AD,WD3_4AD,WD,4,AD,Co,1,0,0,2,0,0,0,0
WD3-4AD-A2,A,BIPI,1,0,WD3,4AD,WD3_4AD,WD,4,AD,Co,1,0,0,2,0,0,0,0
WD3-4AE-A1,A,BIPI,1,0,WD3,4AE,WD3_4AE,WD,4,AE,Co,2,0,0,0,1,0,0,0
WD3-4AE-A2,A,BIPI,1,0,WD3,4AE,WD3_4AE,WD,4,AE,Co,2,0,0,0,1,0,0,0
WD3-4AE-A3,A,BIPI,1,0,WD3,4AE,WD3_4AE,WD,4,AE,Co,2,0,0,0,1,0,0,0
WD3-4AF-A1,A,BIPI,0,0,WD3,4AF,WD3_4AF,WD,4,AF,Co,1,0,0,0,0,2,0,0
WD3-4AF-A2,A,BIPI,0,0,WD3,4AF,WD3_4AF,WD,4,AF,Co,1,0,0,0,0,2,0,0
WD3-4AG-A1,A,BIPI,1,0,WD3,4AG,WD3_4AG,WD,4,AG,Co,1,0,0,0,0,0,2,0
WD3-4AG-A2,A,BIPI,1,0,WD3,4AG,WD3_4AG,WD,4,AG,Co,1,0,0,0,0,0,2,0
WD3-4AG-G1,G,AGCO,1,0,WD3,4AG,WD3_4AG,WD,4,AG,Co,2,0,0,0,0,0,1,0
WD3-4AG-G2,G,AGCO,1,0,WD3,4AG,WD3_4AG,WD,4,AG,Co,2,0,0,0,0,0,1,0
WD3-4AH-A1,A,BIPI,1,0,WD3,4AH,WD3_4AH,WD,4,AH,Co,1,0,0,0,0,0,0,2
WD3-4AH-A2,A,BIPI,1,0,WD3,4AH,WD3_4AH,WD,4,AH,Co,1,0,0,0,0,0,0,2
WD3-4BG-G1,G,AGCO,1,0,WD3,4BG,WD3_4BG,WD,4,BG,Co,0,2,0,0,0,0,1,0
WD3-4BG-G2,G,AGCO,1,0,WD3,4BG,WD3_4BG,WD,4,BG,Co,0,2,0,0,0,0,1,0
WD3-4CG-G1,G,AGCO,1,0,WD3,4CG,WD3_4CG,WD,4,CG,Co,0,0,2,0,0,0,1,0
WD3-4CG-G2,G,AGCO,1,0,WD3,4CG,WD3_4CG,WD,4,CG,Co,0,0,2,0,0,0,1,0
WD3-4DG-G1,G,AGCO,0,0,WD3,4DG,WD3_4DG,WD,4,DG,Co,0,0,0,2,0,0,1,0
WD3-4DG-G2,G,AGCO,0,0,WD3,4DG,WD3_4DG,WD,4,DG,Co,0,0,0,2,0,0,1,0
WD3-4EG-G1,G,AGCO,1,0,WD3,4EG,WD3_4EG,WD,4,EG,Co,0,0,0,0,2,0,1,0
WD3-4EG-G2,G,AGCO,1,0,WD3,4EG,WD3_4EG,WD,4,EG,Co,0,0,0,0,2,0,1,0
WD3-4FG-G1,G,AGCO,1,0,WD3,4FG,WD3_4FG,WD,4,FG,Co,0,0,0,0,0,2,1,0
WD3-4FG-G2,G,AGCO,1,0,WD3,4FG,WD3_4FG,WD,4,FG,Co,0,0,0,0,0,2,1,0
WD3-4GH-G1,G,AGCO,1,0,WD3,4GH,WD3_4GH,WD,4,GH,Co,0,0,0,0,0,0,1,2
WD3-4GH-G2,G,AGCO,1,0,WD3,4GH,WD3_4GH,WD,4,GH,Co,0,0,0,0,0,0,1,2
WD3-8A-A1,A,BIPI,1,0,WD3,8A,WD3_8A,WD,8,A,Mono,7,0,0,0,0,0,0,0
WD3-8A-A2,A,BIPI,1,0,WD3,8A,WD3_8A,WD,8,A,Mono,7,0,0,0,0,0,0,0
WD3-8A-A3,A,BIPI,1,0,WD3,8A,WD3_8A,WD,8,A,Mono,7,0,0,0,0,0,0,0
WD3-8A-A4,A,BIPI,1,0,WD3,8A,WD3_8A,WD,8,A,Mono,7,0,0,0,0,0,0,0
WD3-8A-A5,A,BIPI,1,0,WD3,8A,WD3_8A,WD,8,A,Mono,7,0,0,0,0,0,0,0
WD3-8A-A6,A,BIPI,1,0,WD3,8A,WD3_8A,WD,8,A,Mono,7,0,0,0,0,0,0,0
WD3-8A-A7,A,BIPI,1,0,WD3,8A,WD3_8A,WD,8,A,Mono,7,0,0,0,0,0,0,0
WD3-8A-A8,A,BIPI,1,0,WD3,8A,WD3_8A,WD,8,A,Mono,7,0,0,0,0,0,0,0
WD3-8G-G1,G,AGCO,1,0,WD3,8G,WD3_8G,WD,8,G,Mono,0,0,0,0,0,0,7,0
WD3-8G-G2,G,AGCO,1,0,WD3,8G,WD3_8G,WD,8,G,Mono,0,0,0,0,0,0,7,0
WD3-8G-G3,G,AGCO,1,0,WD3,8G,WD3_8G,WD,8,G,Mono,0,0,0,0,0,0,7,0
WD3-8G-G4,G,AGCO,1,0,WD3,8G,WD3_8G,WD,8,G,Mono,0,0,0,0,0,0,7,0
WD3-8G-G5,G,AGCO,1,0,WD3,8G,WD3_8G,WD,8,G,Mono,0,0,0,0,0,0,7,0
WD3-8G-G6,G,AGCO,1,0,WD3,8G,WD3_8G,WD,8,G,Mono,0,0,0,0,0,0,7,0
WD3-8G-G7,G,AGCO,1,0,WD3,8G,WD3_8G,WD,8,G,Mono,0,0,0,0,0,0,7,0
WD3-8G-G8,G,AGCO,1,0,WD3,8G,WD3_8G,WD,8,G,Mono,0,0,0,0,0,0,7,0
WD3-8AB-A1,A,BIPI,0,0,WD3,8AB,WD3_8AB,WD,8,AB,Co,3,4,0,0,0,0,0,0
WD3-8AB-A2,A,BIPI,1,354.9,WD3,8AB,WD3_8AB,WD,8,AB,Co,3,4,0,0,0,0,0,0
WD3-8AB-A3,A,BIPI,0,0,WD3,8AB,WD3_8AB,WD,8,AB,Co,3,4,0,0,0,0,0,0
WD3-8AB-A4,A,BIPI,0,0,WD3,8AB,WD3_8AB,WD,8,AB,Co,3,4,0,0,0,0,0,0
WD3-8AC-A1,A,BIPI,0,0,WD3,8AC,WD3_8AC,WD,8,AC,Co,3,0,4,0,0,0,0,0
WD3-8AC-A2,A,BIPI,1,0,WD3,8AC,WD3_8AC,WD,8,AC,Co,3,0,4,0,0,0,0,0
WD3-8AC-A3,A,BIPI,1,0,WD3,8AC,WD3_8AC,WD,8,AC,Co,3,0,4,0,0,0,0,0
WD3-8AC-A4,A,BIPI,1,152.1,WD3,8AC,WD3_8AC,WD,8,AC,Co,3,0,4,0,0,0,0,0
WD3-8AD-A1,A,BIPI,1,0,WD3,8AD,WD3_8AD,WD,8,AD,Co,3,0,0,4,0,0,0,0
WD3-8AD-A2,A,BIPI,1,50.7,WD3,8AD,WD3_8AD,WD,8,AD,Co,3,0,0,4,0,0,0,0
WD3-8AD-A3,A,BIPI,1,50.7,WD3,8AD,WD3_8AD,WD,8,AD,Co,3,0,0,4,0,0,0,0
WD3-8AD-A4,A,BIPI,1,0,WD3,8AD,WD3_8AD,WD,8,AD,Co,3,0,0,4,0,0,0,0
WD3-8AE-A1,A,BIPI,1,0,WD3,8AE,WD3_8AE,WD,8,AE,Co,3,0,0,0,4,0,0,0
WD3-8AE-A2,A,BIPI,1,0,WD3,8AE,WD3_8AE,WD,8,AE,Co,3,0,0,0,4,0,0,0
WD3-8AE-A3,A,BIPI,1,0,WD3,8AE,WD3_8AE,WD,8,AE,Co,3,0,0,0,4,0,0,0
WD3-8AE-A4,A,BIPI,0,0,WD3,8AE,WD3_8AE,WD,8,AE,Co,3,0,0,0,4,0,0,0
WD3-8AF-A1,A,BIPI,1,0,WD3,8AF,WD3_8AF,WD,8,AF,Co,3,0,0,0,0,4,0,0
WD3-8AF-A2,A,BIPI,1,0,WD3,8AF,WD3_8AF,WD,8,AF,Co,3,0,0,0,0,4,0,0
WD3-8AF-A3,A,BIPI,1,202.8,WD3,8AF,WD3_8AF,WD,8,AF,Co,3,0,0,0,0,4,0,0
WD3-8AF-A4,A,BIPI,1,0,WD3,8AF,WD3_8AF,WD,8,AF,Co,3,0,0,0,0,4,0,0
WD3-8AG-A1,A,BIPI,0,0,WD3,8AG,WD3_8AG,WD,8,AG,Co,3,0,0,0,0,0,4,0
WD3-8AG-A2,A,BIPI,0,0,WD3,8AG,WD3_8AG,WD,8,AG,Co,3,0,0,0,0,0,4,0
WD3-8AG-A3,A,BIPI,0,0,WD3,8AG,WD3_8AG,WD,8,AG,Co,3,0,0,0,0,0,4,0
WD3-8AG-A4,A,BIPI,0,0,WD3,8AG,WD3_8AG,WD,8,AG,Co,3,0,0,0,0,0,4,0
WD3-8AG-G1,G,AGCO,0,0,WD3,8AG,WD3_8AG,WD,8,AG,Co,4,0,0,0,0,0,3,0
WD3-8AG-G2,G,AGCO,0,0,WD3,8AG,WD3_8AG,WD,8,AG,Co,4,0,0,0,0,0,3,0
WD3-8AG-G3,G,AGCO,0,0,WD3,8AG,WD3_8AG,WD,8,AG,Co,4,0,0,0,0,0,3,0
WD3-8AG-G4,G,AGCO,0,0,WD3,8AG,WD3_8AG,WD,8,AG,Co,4,0,0,0,0,0,3,0
WD3-8AH-A1,A,BIPI,1,0,WD3,8AH,WD3_8AH,WD,8,AH,Co,3,0,0,0,0,0,0,4
WD3-8AH-A2,A,BIPI,1,0,WD3,8AH,WD3_8AH,WD,8,AH,Co,3,0,0,0,0,0,0,4
WD3-8AH-A3,A,BIPI,0,0,WD3,8AH,WD3_8AH,WD,8,AH,Co,3,0,0,0,0,0,0,4
WD3-8AH-A4,A,BIPI,1,0,WD3,8AH,WD3_8AH,WD,8,AH,Co,3,0,0,0,0,0,0,4
WD3-8BG-G1,G,AGCO,1,0,WD3,8BG,WD3_8BG,WD,8,BG,Co,0,4,0,0,0,0,3,0
WD3-8BG-G2,G,AGCO,0,0,WD3,8BG,WD3_8BG,WD,8,BG,Co,0,4,0,0,0,0,3,0
WD3-8BG-G3,G,AGCO,1,0,WD3,8BG,WD3_8BG,WD,8,BG,Co,0,4,0,0,0,0,3,0
WD3-8BG-G4,G,AGCO,0,0,WD3,8BG,WD3_8BG,WD,8,BG,Co,0,4,0,0,0,0,3,0
WD3-8CG-G1,G,AGCO,1,0,WD3,8CG,WD3_8CG,WD,8,CG,Co,0,0,4,0,0,0,3,0
WD3-8CG-G2,G,AGCO,1,0,WD3,8CG,WD3_8CG,WD,8,CG,Co,0,0,4,0,0,0,3,0
WD3-8CG-G3,G,AGCO,1,0,WD3,8CG,WD3_8CG,WD,8,CG,Co,0,0,4,0,0,0,3,0
WD3-8CG-G4,G,AGCO,1,493.8,WD3,8CG,WD3_8CG,WD,8,CG,Co,0,0,4,0,0,0,3,0
WD3-8DG-G1,G,AGCO,0,0,WD3,8DG,WD3_8DG,WD,8,DG,Co,0,0,0,4,0,0,3,0
WD3-8DG-G2,G,AGCO,0,0,WD3,8DG,WD3_8DG,WD,8,DG,Co,0,0,0,4,0,0,3,0
WD3-8DG-G3,G,AGCO,1,0,WD3,8DG,WD3_8DG,WD,8,DG,Co,0,0,0,4,0,0,3,0
WD3-8DG-G4,G,AGCO,0,0,WD3,8DG,WD3_8DG,WD,8,DG,Co,0,0,0,4,0,0,3,0
WD3-8EG-G1,G,AGCO,0,0,WD3,8EG,WD3_8EG,WD,8,EG,Co,0,0,0,0,4,0,3,0
WD3-8EG-G2,G,AGCO,1,0,WD3,8EG,WD3_8EG,WD,8,EG,Co,0,0,0,0,4,0,3,0
WD3-8EG-G3,G,AGCO,1,0,WD3,8EG,WD3_8EG,WD,8,EG,Co,0,0,0,0,4,0,3,0
WD3-8EG-G4,G,AGCO,1,0,WD3,8EG,WD3_8EG,WD,8,EG,Co,0,0,0,0,4,0,3,0
WD3-8FG-G1,G,AGCO,1,0,WD3,8FG,WD3_8FG,WD,8,FG,Co,0,0,0,0,0,4,3,0
WD3-8FG-G2,G,AGCO,0,0,WD3,8FG,WD3_8FG,WD,8,FG,Co,0,0,0,0,0,4,3,0
WD3-8FG-G3,G,AGCO,1,0,WD3,8FG,WD3_8FG,WD,8,FG,Co,0,0,0,0,0,4,3,0
WD3-8FG-G4,G,AGCO,0,0,WD3,8FG,WD3_8FG,WD,8,FG,Co,0,0,0,0,0,4,3,0
WD3-8GH-G1,G,AGCO,0,0,WD3,8GH,WD3_8GH,WD,8,GH,Co,0,0,0,0,0,0,3,4
WD3-8GH-G2,G,AGCO,0,0,WD3,8GH,WD3_8GH,WD,8,GH,Co,0,0,0,0,0,0,3,4
WD3-8GH-G3,G,AGCO,0,0,WD3,8GH,WD3_8GH,WD,8,GH,Co,0,0,0,0,0,0,3,4
WD3-8GH-G4,G,AGCO,0,0,WD3,8GH,WD3_8GH,WD,8,GH,Co,0,0,0,0,0,0,3,4
WD4-2A-A1,A,BIPI,0,0,WD4,2A,WD4_2A,WD,2,A,Mono,1,0,0,0,0,0,0,0
WD4-2A-A2,A,BIPI,0,0,WD4,2A,WD4_2A,WD,2,A,Mono,1,0,0,0,0,0,0,0
WD4-2G-G1,G,AGCO,1,0,WD4,2G,WD4_2G,WD,2,G,Mono,0,0,0,0,0,0,1,0
WD4-2G-G2,G,AGCO,0,0,WD4,2G,WD4_2G,WD,2,G,Mono,0,0,0,0,0,0,1,0
WD4-2AB-A,A,BIPI,1,152.1,WD4,2AB,WD4_2AB,WD,2,AB,Co,0,1,0,0,0,0,0,0
WD4-2AC-A,A,BIPI,1,354.9,WD4,2AC,WD4_2AC,WD,2,AC,Co,0,0,1,0,0,0,0,0
WD4-2AD-A,A,BIPI,1,253.5,WD4,2AD,WD4_2AD,WD,2,AD,Co,0,0,0,1,0,0,0,0
WD4-2AE-A,A,BIPI,1,507,WD4,2AE,WD4_2AE,WD,2,AE,Co,0,0,0,0,1,0,0,0
WD4-2AF-A,A,BIPI,1,101.4,WD4,2AF,WD4_2AF,WD,2,AF,Co,0,0,0,0,0,1,0,0
WD4-2AG-A,A,BIPI,1,507,WD4,2AG,WD4_2AG,WD,2,AG,Co,0,0,0,0,0,0,1,0
WD4-2AG-G,G,AGCO,1,0,WD4,2AG,WD4_2AG,WD,2,AG,Co,1,0,0,0,0,0,0,0
WD4-2AH-A,A,BIPI,1,0,WD4,2AH,WD4_2AH,WD,2,AH,Co,0,0,0,0,0,0,0,1
WD4-2BG-G,G,AGCO,0,0,WD4,2BG,WD4_2BG,WD,2,BG,Co,0,1,0,0,0,0,0,0
WD4-2CG-G,G,AGCO,1,329.2,WD4,2CG,WD4_2CG,WD,2,CG,Co,0,0,1,0,0,0,0,0
WD4-2DG-G,G,AGCO,1,0,WD4,2DG,WD4_2DG,WD,2,DG,Co,0,0,0,1,0,0,0,0
WD4-2EG-G,G,AGCO,1,493.8,WD4,2EG,WD4_2EG,WD,2,EG,Co,0,0,0,0,1,0,0,0
WD4-2FG-G,G,AGCO,1,0,WD4,2FG,WD4_2FG,WD,2,FG,Co,0,0,0,0,0,1,0,0
WD4-2GH-G,G,AGCO,1,0,WD4,2GH,WD4_2GH,WD,2,GH,Co,0,0,0,0,0,0,0,1
WD4-4A-A1,A,BIPI,1,253.5,WD4,4A,WD4_4A,WD,4,A,Mono,3,0,0,0,0,0,0,0
WD4-4A-A2,A,BIPI,1,0,WD4,4A,WD4_4A,WD,4,A,Mono,3,0,0,0,0,0,0,0
WD4-4A-A3,A,BIPI,1,0,WD4,4A,WD4_4A,WD,4,A,Mono,3,0,0,0,0,0,0,0
WD4-4A-A4,A,BIPI,1,152.1,WD4,4A,WD4_4A,WD,4,A,Mono,3,0,0,0,0,0,0,0
WD4-4G-G1,G,AGCO,0,0,WD4,4G,WD4_4G,WD,4,G,Mono,0,0,0,0,0,0,3,0
WD4-4G-G2,G,AGCO,1,0,WD4,4G,WD4_4G,WD,4,G,Mono,0,0,0,0,0,0,3,0
WD4-4G-G3,G,AGCO,1,0,WD4,4G,WD4_4G,WD,4,G,Mono,0,0,0,0,0,0,3,0
WD4-4G-G4,G,AGCO,1,0,WD4,4G,WD4_4G,WD,4,G,Mono,0,0,0,0,0,0,3,0
WD4-4AB-A1,A,BIPI,1,405.6,WD4,4AB,WD4_4AB,WD,4,AB,Co,1,2,0,0,0,0,0,0
WD4-4AB-A2,A,BIPI,1,507,WD4,4AB,WD4_4AB,WD,4,AB,Co,1,2,0,0,0,0,0,0
WD4-4AC-A1,A,BIPI,1,0,WD4,4AC,WD4_4AC,WD,4,AC,Co,1,0,2,0,0,0,0,0
WD4-4AC-A2,A,BIPI,1,101.4,WD4,4AC,WD4_4AC,WD,4,AC,Co,1,0,2,0,0,0,0,0
WD4-4AD-A1,A,BIPI,1,152.1,WD4,4AD,WD4_4AD,WD,4,AD,Co,1,0,0,2,0,0,0,0
WD4-4AD-A2,A,BIPI,1,456.3,WD4,4AD,WD4_4AD,WD,4,AD,Co,1,0,0,2,0,0,0,0
WD4-4AE-A1,A,BIPI,1,0,WD4,4AE,WD4_4AE,WD,4,AE,Co,1,0,0,0,2,0,0,0
WD4-4AE-A2,A,BIPI,1,253.5,WD4,4AE,WD4_4AE,WD,4,AE,Co,1,0,0,0,2,0,0,0
WD4-4AF-A1,A,BIPI,1,101.4,WD4,4AF,WD4_4AF,WD,4,AF,Co,1,0,0,0,0,2,0,0
WD4-4AF-A2,A,BIPI,1,101.4,WD4,4AF,WD4_4AF,WD,4,AF,Co,1,0,0,0,0,2,0,0
WD4-4AG-A1,A,BIPI,1,0,WD4,4AG,WD4_4AG,WD,4,AG,Co,1,0,0,0,0,0,2,0
WD4-4AG-A2,A,BIPI,1,50.7,WD4,4AG,WD4_4AG,WD,4,AG,Co,1,0,0,0,0,0,2,0
WD4-4AG-G1,G,AGCO,0,0,WD4,4AG,WD4_4AG,WD,4,AG,Co,2,0,0,0,0,0,1,0
WD4-4AG-G2,G,AGCO,1,0,WD4,4AG,WD4_4AG,WD,4,AG,Co,2,0,0,0,0,0,1,0
WD4-4AH-A1,A,BIPI,1,0,WD4,4AH,WD4_4AH,WD,4,AH,Co,1,0,0,0,0,0,0,2
WD4-4AH-A2,A,BIPI,1,0,WD4,4AH,WD4_4AH,WD,4,AH,Co,1,0,0,0,0,0,0,2
WD4-4BG-G1,G,AGCO,1,0,WD4,4BG,WD4_4BG,WD,4,BG,Co,0,2,0,0,0,0,1,0
WD4-4BG-G2,G,AGCO,0,0,WD4,4BG,WD4_4BG,WD,4,BG,Co,0,2,0,0,0,0,1,0
WD4-4CG-G1,G,AGCO,1,0,WD4,4CG,WD4_4CG,WD,4,CG,Co,0,0,2,0,0,0,1,0
WD4-4CG-G2,G,AGCO,1,0,WD4,4CG,WD4_4CG,WD,4,CG,Co,0,0,2,0,0,0,1,0
WD4-4DG-G1,G,AGCO,1,0,WD4,4DG,WD4_4DG,WD,4,DG,Co,0,0,0,2,0,0,1,0
WD4-4DG-G2,G,AGCO,1,0,WD4,4DG,WD4_4DG,WD,4,DG,Co,0,0,0,2,0,0,1,0
WD4-4EG-G1,G,AGCO,1,0,WD4,4EG,WD4_4EG,WD,4,EG,Co,0,0,0,0,2,0,1,0
WD4-4EG-G2,G,AGCO,1,0,WD4,4EG,WD4_4EG,WD,4,EG,Co,0,0,0,0,2,0,1,0
WD4-4FG-G1,G,AGCO,1,0,WD4,4FG,WD4_4FG,WD,4,FG,Co,0,0,0,0,0,2,1,0
WD4-4FG-G2,G,AGCO,1,0,WD4,4FG,WD4_4FG,WD,4,FG,Co,0,0,0,0,0,2,1,0
WD4-4GH-G1,G,AGCO,1,0,WD4,4GH,WD4_4GH,WD,4,GH,Co,0,0,0,0,0,0,1,2
WD4-4GH-G2,G,AGCO,1,0,WD4,4GH,WD4_4GH,WD,4,GH,Co,0,0,0,0,0,0,1,2
WD4-8A-A1,A,BIPI,1,50.7,WD4,8A,WD4_8A,WD,8,A,Mono,7,0,0,0,0,0,0,0
WD4-8A-A2,A,BIPI,1,0,WD4,8A,WD4_8A,WD,8,A,Mono,7,0,0,0,0,0,0,0
WD4-8A-A3,A,BIPI,1,0,WD4,8A,WD4_8A,WD,8,A,Mono,7,0,0,0,0,0,0,0
WD4-8A-A4,A,BIPI,1,0,WD4,8A,WD4_8A,WD,8,A,Mono,7,0,0,0,0,0,0,0
WD4-8A-A5,A,BIPI,1,0,WD4,8A,WD4_8A,WD,8,A,Mono,7,0,0,0,0,0,0,0
WD4-8A-A6,A,BIPI,1,152.1,WD4,8A,WD4_8A,WD,8,A,Mono,7,0,0,0,0,0,0,0
WD4-8A-A7,A,BIPI,1,0,WD4,8A,WD4_8A,WD,8,A,Mono,7,0,0,0,0,0,0,0
WD4-8A-A8,A,BIPI,1,0,WD4,8A,WD4_8A,WD,8,A,Mono,7,0,0,0,0,0,0,0
WD4-8G-G1,G,AGCO,0,0,WD4,8G,WD4_8G,WD,8,G,Mono,0,0,0,0,0,0,7,0
WD4-8G-G2,G,AGCO,1,0,WD4,8G,WD4_8G,WD,8,G,Mono,0,0,0,0,0,0,7,0
WD4-8G-G3,G,AGCO,0,0,WD4,8G,WD4_8G,WD,8,G,Mono,0,0,0,0,0,0,7,0
WD4-8G-G4,G,AGCO,1,0,WD4,8G,WD4_8G,WD,8,G,Mono,0,0,0,0,0,0,7,0
WD4-8G-G5,G,AGCO,1,0,WD4,8G,WD4_8G,WD,8,G,Mono,0,0,0,0,0,0,7,0
WD4-8G-G6,G,AGCO,0,0,WD4,8G,WD4_8G,WD,8,G,Mono,0,0,0,0,0,0,7,0
WD4-8G-G7,G,AGCO,0,0,WD4,8G,WD4_8G,WD,8,G,Mono,0,0,0,0,0,0,7,0
WD4-8G-G8,G,AGCO,0,0,WD4,8G,WD4_8G,WD,8,G,Mono,0,0,0,0,0,0,7,0
WD4-8AB-A1,A,BIPI,1,507,WD4,8AB,WD4_8AB,WD,8,AB,Co,3,4,0,0,0,0,0,0
WD4-8AB-A2,A,BIPI,1,152.1,WD4,8AB,WD4_8AB,WD,8,AB,Co,3,4,0,0,0,0,0,0
WD4-8AB-A3,A,BIPI,1,0,WD4,8AB,WD4_8AB,WD,8,AB,Co,3,4,0,0,0,0,0,0
WD4-8AB-A4,A,BIPI,1,0,WD4,8AB,WD4_8AB,WD,8,AB,Co,3,4,0,0,0,0,0,0
WD4-8AC-A1,A,BIPI,1,0,WD4,8AC,WD4_8AC,WD,8,AC,Co,3,0,4,0,0,0,0,0
WD4-8AC-A2,A,BIPI,1,0,WD4,8AC,WD4_8AC,WD,8,AC,Co,3,0,4,0,0,0,0,0
WD4-8AC-A3,A,BIPI,1,0,WD4,8AC,WD4_8AC,WD,8,AC,Co,3,0,4,0,0,0,0,0
WD4-8AC-A4,A,BIPI,1,0,WD4,8AC,WD4_8AC,WD,8,AC,Co,3,0,4,0,0,0,0,0
WD4-8AD-A1,A,BIPI,0,0,WD4,8AD,WD4_8AD,WD,8,AD,Co,3,0,0,4,0,0,0,0
WD4-8AD-A2,A,BIPI,1,0,WD4,8AD,WD4_8AD,WD,8,AD,Co,3,0,0,4,0,0,0,0
WD4-8AD-A3,A,BIPI,1,0,WD4,8AD,WD4_8AD,WD,8,AD,Co,3,0,0,4,0,0,0,0
WD4-8AD-A4,A,BIPI,1,0,WD4,8AD,WD4_8AD,WD,8,AD,Co,3,0,0,4,0,0,0,0
WD4-8AE-A1,A,BIPI,1,0,WD4,8AE,WD4_8AE,WD,8,AE,Co,3,0,0,0,4,0,0,0
WD4-8AE-A2,A,BIPI,1,0,WD4,8AE,WD4_8AE,WD,8,AE,Co,3,0,0,0,4,0,0,0
WD4-8AE-A3,A,BIPI,1,0,WD4,8AE,WD4_8AE,WD,8,AE,Co,3,0,0,0,4,0,0,0
WD4-8AE-A4,A,BIPI,1,0,WD4,8AE,WD4_8AE,WD,8,AE,Co,3,0,0,0,4,0,0,0
WD4-8AF-A1,A,BIPI,1,0,WD4,8AF,WD4_8AF,WD,8,AF,Co,3,0,0,0,0,4,0,0
WD4-8AF-A2,A,BIPI,1,0,WD4,8AF,WD4_8AF,WD,8,AF,Co,3,0,0,0,0,4,0,0
WD4-8AF-A3,A,BIPI,1,0,WD4,8AF,WD4_8AF,WD,8,AF,Co,3,0,0,0,0,4,0,0
WD4-8AF-A4,A,BIPI,1,152.1,WD4,8AF,WD4_8AF,WD,8,AF,Co,3,0,0,0,0,4,0,0
WD4-8AG-A1,A,BIPI,1,0,WD4,8AG,WD4_8AG,WD,8,AG,Co,3,0,0,0,0,0,4,0
WD4-8AG-A2,A,BIPI,1,0,WD4,8AG,WD4_8AG,WD,8,AG,Co,3,0,0,0,0,0,4,0
WD4-8AG-A3,A,BIPI,1,0,WD4,8AG,WD4_8AG,WD,8,AG,Co,3,0,0,0,0,0,4,0
WD4-8AG-A4,A,BIPI,1,0,WD4,8AG,WD4_8AG,WD,8,AG,Co,3,0,0,0,0,0,4,0
WD4-8AG-G1,G,AGCO,1,0,WD4,8AG,WD4_8AG,WD,8,AG,Co,4,0,0,0,0,0,3,0
WD4-8AG-G2,G,AGCO,1,0,WD4,8AG,WD4_8AG,WD,8,AG,Co,4,0,0,0,0,0,3,0
WD4-8AG-G3,G,AGCO,1,0,WD4,8AG,WD4_8AG,WD,8,AG,Co,4,0,0,0,0,0,3,0
WD4-8AG-G4,G,AGCO,0,0,WD4,8AG,WD4_8AG,WD,8,AG,Co,4,0,0,0,0,0,3,0
WD4-8AH-A1,A,BIPI,1,0,WD4,8AH,WD4_8AH,WD,8,AH,Co,3,0,0,0,0,0,0,4
WD4-8AH-A2,A,BIPI,1,0,WD4,8AH,WD4_8AH,WD,8,AH,Co,3,0,0,0,0,0,0,4
WD4-8AH-A3,A,BIPI,1,0,WD4,8AH,WD4_8AH,WD,8,AH,Co,3,0,0,0,0,0,0,4
WD4-8AH-A4,A,BIPI,1,0,WD4,8AH,WD4_8AH,WD,8,AH,Co,3,0,0,0,0,0,0,4
WD4-8BG-G1,G,AGCO,1,493.8,WD4,8BG,WD4_8BG,WD,8,BG,Co,0,4,0,0,0,0,3,0
WD4-8BG-G2,G,AGCO,1,0,WD4,8BG,WD4_8BG,WD,8,BG,Co,0,4,0,0,0,0,3,0
WD4-8BG-G3,G,AGCO,1,493.8,WD4,8BG,WD4_8BG,WD,8,BG,Co,0,4,0,0,0,0,3,0
WD4-8BG-G4,G,AGCO,1,0,WD4,8BG,WD4_8BG,WD,8,BG,Co,0,4,0,0,0,0,3,0
WD4-8CG-G1,G,AGCO,1,0,WD4,8CG,WD4_8CG,WD,8,CG,Co,0,0,4,0,0,0,3,0
WD4-8CG-G2,G,AGCO,0,0,WD4,8CG,WD4_8CG,WD,8,CG,Co,0,0,4,0,0,0,3,0
WD4-8CG-G3,G,AGCO,1,0,WD4,8CG,WD4_8CG,WD,8,CG,Co,0,0,4,0,0,0,3,0
WD4-8CG-G4,G,AGCO,0,0,WD4,8CG,WD4_8CG,WD,8,CG,Co,0,0,4,0,0,0,3,0
WD4-8DG-G1,G,AGCO,1,0,WD4,8DG,WD4_8DG,WD,8,DG,Co,0,0,0,4,0,0,3,0
WD4-8DG-G2,G,AGCO,0,0,WD4,8DG,WD4_8DG,WD,8,DG,Co,0,0,0,4,0,0,3,0
WD4-8DG-G3,G,AGCO,1,0,WD4,8DG,WD4_8DG,WD,8,DG,Co,0,0,0,4,0,0,3,0
WD4-8DG-G4,G,AGCO,0,0,WD4,8DG,WD4_8DG,WD,8,DG,Co,0,0,0,4,0,0,3,0
WD4-8EG-G1,G,AGCO,0,0,WD4,8EG,WD4_8EG,WD,8,EG,Co,0,0,0,0,4,0,3,0
WD4-8EG-G2,G,AGCO,1,823,WD4,8EG,WD4_8EG,WD,8,EG,Co,0,0,0,0,4,0,3,0
WD4-8EG-G3,G,AGCO,1,411.5,WD4,8EG,WD4_8EG,WD,8,EG,Co,0,0,0,0,4,0,3,0