No,Sp,Species,Survival,num_seeds,Block,Pot,Pot,Raintype,Density,Composition,Culture,n_BIPI,n_OPCO,n_PHAN,n_DAAE,n_POHY,n_PRCL,n_AGCO,n_LUHY
DW3-8CD-D2,D,DAAE,0,0,DW3,8CD,DW3_8CD,DW,8,CD,Co,0,0,4,3,0,0,0,0
DW3-8CD-D3,D,DAAE,0,0,DW3,8CD,DW3_8CD,DW,8,CD,Co,0,0,4,3,0,0,0,0
DW3-8CD-D4,D,DAAE,0,0,DW3,8CD,DW3_8CD,DW,8,CD,Co,0,0,4,3,0,0,0,0
DW3-8CE-C1,C,PHAN,1,612.5,DW3,8CE,DW3_8CE,DW,8,CE,Co,0,0,3,0,4,0,0,0
DW3-8CE-C2,C,PHAN,1,0,DW3,8CE,DW3_8CE,DW,8,CE,Co,0,0,3,0,4,0,0,0
DW3-8CE-C3,C,PHAN,1,437.5,DW3,8CE,DW3_8CE,DW,8,CE,Co,0,0,3,0,4,0,0,0
DW3-8CE-C4,C,PHAN,1,525,DW3,8CE,DW3_8CE,DW,8,CE,Co,0,0,3,0,4,0,0,0
DW3-8CF-C1,C,PHAN,0,0,DW3,8CF,DW3_8CF,DW,8,CF,Co,0,0,3,0,0,4,0,0
DW3-8CF-C2,C,PHAN,0,0,DW3,8CF,DW3_8CF,DW,8,CF,Co,0,0,3,0,0,4,0,0
DW3-8CF-C3,C,PHAN,0,0,DW3,8CF,DW3_8CF,DW,8,CF,Co,0,0,3,0,0,4,0,0
DW3-8CF-C4,C,PHAN,0,0,DW3,8CF,DW3_8CF,DW,8,CF,Co,0,0,3,0,0,4,0,0
DW3-8CG-C1,C,PHAN,1,0,DW3,8CG,DW3_8CG,DW,8,CG,Co,0,0,3,0,0,0,4,0
DW3-8CG-C2,C,PHAN,0,0,DW3,8CG,DW3_8CG,DW,8,CG,Co,0,0,3,0,0,0,4,0
DW3-8CG-C3,C,PHAN,0,0,DW3,8CG,DW3_8CG,DW,8,CG,Co,0,0,3,0,0,0,4,0
DW3-8CG-C4,C,PHAN,1,1050,DW3,8CG,DW3_8CG,DW,8,CG,Co,0,0,3,0,0,0,4,0
DW3-8CH-C1,C,PHAN,1,0,DW3,8CH,DW3_8CH,DW,8,CH,Co,0,0,3,0,0,0,0,4
DW3-8CH-C2,C,PHAN,1,262.5,DW3,8CH,DW3_8CH,DW,8,CH,Co,0,0,3,0,0,0,0,4
DW3-8CH-C3,C,PHAN,1,350,DW3,8CH,DW3_8CH,DW,8,CH,Co,0,0,3,0,0,0,0,4
DW3-8CH-C4,C,PHAN,0,0,DW3,8CH,DW3_8CH,DW,8,CH,Co,0,0,3,0,0,0,0,4
DW3-8DE-D1,D,DAAE,1,86,DW3,8DE,DW3_8DE,DW,8,DE,Co,0,0,0,3,4,0,0,0
DW3-8DE-D2,D,DAAE,1,215,DW3,8DE,DW3_8DE,DW,8,DE,Co,0,0,0,3,4,0,0,0
DW3-8DE-D3,D,DAAE,1,172,DW3,8DE,DW3_8DE,DW,8,DE,Co,0,0,0,3,4,0,0,0
DW3-8DE-D4,D,DAAE,1,43,DW3,8DE,DW3_8DE,DW,8,DE,Co,0,0,0,3,4,0,0,0
DW3-8DF-D1,D,DAAE,1,301,DW3,8DF,DW3_8DF,DW,8,DF,Co,0,0,0,3,0,4,0,0
DW3-8DF-D2,D,DAAE,1,86,DW3,8DF,DW3_8DF,DW,8,DF,Co,0,0,0,3,0,4,0,0
DW3-8DF-D3,D,DAAE,0,0,DW3,8DF,DW3_8DF,DW,8,DF,Co,0,0,0,3,0,4,0,0
DW3-8DF-D4,D,DAAE,1,215,DW3,8DF,DW3_8DF,DW,8,DF,Co,0,0,0,3,0,4,0,0
DW3-8DG-D1,D,DAAE,1,172,DW3,8DG,DW3_8DG,DW,8,DG,Co,0,0,0,3,0,0,4,0
DW3-8DG-D2,D,DAAE,1,43,DW3,8DG,DW3_8DG,DW,8,DG,Co,0,0,0,3,0,0,4,0
DW3-8DG-D3,D,DAAE,1,344,DW3,8DG,DW3_8DG,DW,8,DG,Co,0,0,0,3,0,0,4,0
DW3-8DG-D4,D,DAAE,1,301,DW3,8DG,DW3_8DG,DW,8,DG,Co,0,0,0,3,0,0,4,0
DW3-8DH-D1,D,DAAE,1,129,DW3,8DH,DW3_8DH,DW,8,DH,Co,0,0,0,3,0,0,0,4
DW3-8DH-D2,D,DAAE,1,129,DW3,8DH,DW3_8DH,DW,8,DH,Co,0,0,0,3,0,0,0,4
DW3-8DH-D3,D,DAAE,1,473,DW3,8DH,DW3_8DH,DW,8,DH,Co,0,0,0,3,0,0,0,4
DW3-8DH-D4,D,DAAE,0,0,DW3,8DH,DW3_8DH,DW,8,DH,Co,0,0,0,3,0,0,0,4
DW4-2C-C1,C,PHAN,1,1312.5,DW4,2C,DW4_2C,DW,2,C,Mono,0,0,1,0,0,0,0,0
DW4-2C-C2,C,PHAN,1,0,DW4,2C,DW4_2C,DW,2,C,Mono,0,0,1,0,0,0,0,0
DW4-2D-D1,D,DAAE,1,387,DW4,2D,DW4_2D,DW,2,D,Mono,0,0,0,1,0,0,0,0
DW4-2D-D2,D,DAAE,1,129,DW4,2D,DW4_2D,DW,2,D,Mono,0,0,0,1,0,0,0,0
DW4-2AC-C,C,PHAN,0,0,DW4,2AC,DW4_2AC,DW,2,AC,Co,1,0,0,0,0,0,0,0
DW4-2AD-D,D,DAAE,1,516,DW4,2AD,DW4_2AD,DW,2,AD,Co,1,0,0,0,0,0,0,0
DW4-2BC-C,C,PHAN,1,962.5,DW4,2BC,DW4_2BC,DW,2,BC,Co,0,1,0,0,0,0,0,0
DW4-2BD-D,D,DAAE,1,430,DW4,2BD,DW4_2BD,DW,2,BD,Co,0,1,0,0,0,0,0,0
DW4-2CD-C,C,PHAN,1,0,DW4,2CD,DW4_2CD,DW,2,CD,Co,0,0,0,1,0,0,0,0
DW4-2CD-D,D,DAAE,1,301,DW4,2CD,DW4_2CD,DW,2,CD,Co,0,0,1,0,0,0,0,0
DW4-2CE-C,C,PHAN,0,0,DW4,2CE,DW4_2CE,DW,2,CE,Co,0,0,0,0,1,0,0,0
DW4-2CF-C,C,PHAN,1,0,DW4,2CF,DW4_2CF,DW,2,CF,Co,0,0,0,0,0,1,0,0
DW4-2CG-C,C,PHAN,0,0,DW4,2CG,DW4_2CG,DW,2,CG,Co,0,0,0,0,0,0,1,0
DW4-2CH-C,C,PHAN,1,0,DW4,2CH,DW4_2CH,DW,2,CH,Co,0,0,0,0,0,0,0,1
DW4-2DE-D,D,DAAE,1,731,DW4,2DE,DW4_2DE,DW,2,DE,Co,0,0,0,0,1,0,0,0
DW4-2DF-D,D,DAAE,1,43,DW4,2DF,DW4_2DF,DW,2,DF,Co,0,0,0,0,0,1,0,0
DW4-2DG-D,D,DAAE,1,301,DW4,2DG,DW4_2DG,DW,2,DG,Co,0,0,0,0,0,0,1,0
DW4-2DH-D,D,DAAE,1,473,DW4,2DH,DW4_2DH,DW,2,DH,Co,0,0,0,0,0,0,0,1
DW4-4C-C1,C,PHAN,1,0,DW4,4C,DW4_4C,DW,4,C,Mono,0,0,3,0,0,0,0,0
DW4-4C-C2,C,PHAN,1,700,DW4,4C,DW4_4C,DW,4,C,Mono,0,0,3,0,0,0,0,0
DW4-4C-C3,C,PHAN,1,700,DW4,4C,DW4_4C,DW,4,C,Mono,0,0,3,0,0,0,0,0
DW4-4C-C4,C,PHAN,1,1312.5,DW4,4C,DW4_4C,DW,4,C,Mono,0,0,3,0,0,0,0,0
DW4-4D-D1,D,DAAE,1,129,DW4,4D,DW4_4D,DW,4,D,Mono,0,0,0,3,0,0,0,0
DW4-4D-D2,D,DAAE,1,129,DW4,4D,DW4_4D,DW,4,D,Mono,0,0,0,3,0,0,0,0
DW4-4D-D3,D,DAAE,1,129,DW4,4D,DW4_4D,DW,4,D,Mono,0,0,0,3,0,0,0,0
DW4-4D-D4,D,DAAE,1,215,DW4,4D,DW4_4D,DW,4,D,Mono,0,0,0,3,0,0,0,0
DW4-4AC-C1,C,PHAN,1,350,DW4,4AC,DW4_4AC,DW,4,AC,Co,2,0,1,0,0,0,0,0
DW4-4AC-C2,C,PHAN,1,437.5,DW4,4AC,DW4_4AC,DW,4,AC,Co,2,0,1,0,0,0,0,0
DW4-4AD-D1,D,DAAE,1,559,DW4,4AD,DW4_4AD,DW,4,AD,Co,2,0,0,1,0,0,0,0
DW4-4AD-D2,D,DAAE,0,0,DW4,4AD,DW4_4AD,DW,4,AD,Co,2,0,0,1,0,0,0,0
DW4-4BC-C1,C,PHAN,1,0,DW4,4BC,DW4_4BC,DW,4,BC,Co,0,2,1,0,0,0,0,0
DW4-4BC-C2,C,PHAN,0,0,DW4,4BC,DW4_4BC,DW,4,BC,Co,0,2,1,0,0,0,0,0
DW4-4BD-D1,D,DAAE,1,258,DW4,4BD,DW4_4BD,DW,4,BD,Co,0,2,0,1,0,0,0,0
DW4-4BD-D2,D,DAAE,1,129,DW4,4BD,DW4_4BD,DW,4,BD,Co,0,2,0,1,0,0,0,0
DW4-4CD-C1,C,PHAN,1,0,DW4,4CD,DW4_4CD,DW,4,CD,Co,0,0,1,2,0,0,0,0
DW4-4CD-C2,C,PHAN,0,0,DW4,4CD,DW4_4CD,DW,4,CD,Co,0,0,1,2,0,0,0,0
DW4-4CD-D1,D,DAAE,1,172,DW4,4CD,DW4_4CD,DW,4,CD,Co,0,0,2,1,0,0,0,0
DW4-4CD-D2,D,DAAE,1,387,DW4,4CD,DW4_4CD,DW,4,CD,Co,0,0,2,1,0,0,0,0
DW4-4CE-C1,C,PHAN,1,437.5,DW4,4CE,DW4_4CE,DW,4,CE,Co,0,0,1,0,2,0,0,0
DW4-4CE-C2,C,PHAN,1,437.5,DW4,4CE,DW4_4CE,DW,4,CE,Co,0,0,1,0,2,0,0,0
DW4-4CF-C1,C,PHAN,1,262.5,DW4,4CF,DW4_4CF,DW,4,CF,Co,0,0,1,0,0,2,0,0
DW4-4CF-C2,C,PHAN,1,175,DW4,4CF,DW4_4CF,DW,4,CF,Co,0,0,1,0,0,2,0,0
DW4-4CG-C1,C,PHAN,0,0,DW4,4CG,DW4_4CG,DW,4,CG,Co,0,0,1,0,0,0,2,0
DW4-4CG-C2,C,PHAN,1,175,DW4,4CG,DW4_4CG,DW,4,CG,Co,0,0,1,0,0,0,2,0
DW4-4CH-C1,C,PHAN,1,175,DW4,4CH,DW4_4CH,DW,4,CH,Co,0,0,1,0,0,0,0,2
DW4-4CH-C2,C,PHAN,0,0,DW4,4CH,DW4_4CH,DW,4,CH,Co,0,0,1,0,0,0,0,2
DW4-4DE-D1,D,DAAE,1,258,DW4,4DE,DW4_4DE,DW,4,DE,Co,0,0,0,1,2,0,0,0
DW4-4DE-D2,D,DAAE,1,86,DW4,4DE,DW4_4DE,DW,4,DE,Co,0,0,0,1,2,0,0,0
DW4-4DF-D1,D,DAAE,1,129,DW4,4DF,DW4_4DF,DW,4,DF,Co,0,0,0,1,0,2,0,0
DW4-4DF-D2,D,DAAE,1,344,DW4,4DF,DW4_4DF,DW,4,DF,Co,0,0,0,1,0,2,0,0
DW4-4DG-D1,D,DAAE,1,516,DW4,4DG,DW4_4DG,DW,4,DG,Co,0,0,0,1,0,0,2,0
DW4-4DG-D2,D,DAAE,1,258,DW4,4DG,DW4_4DG,DW,4,DG,Co,0,0,0,1,0,0,2,0
DW4-4DH-D1,D,DAAE,1,172,DW4,4DH,DW4_4DH,DW,4,DH,Co,0,0,0,1,0,0,0,2
DW4-4DH-D2,D,DAAE,1,215,DW4,4DH,DW4_4DH,DW,4,DH,Co,0,0,0,1,0,0,0,2
DW4-8C-C1,C,PHAN,0,0,DW4,8C,DW4_8C,DW,8,C,Mono,0,0,7,0,0,0,0,0
DW4-8C-C2,C,PHAN,0,0,DW4,8C,DW4_8C,DW,8,C,Mono,0,0,7,0,0,0,0,0
DW4-8C-C3,C,PHAN,1,0,DW4,8C,DW4_8C,DW,8,C,Mono,0,0,7,0,0,0,0,0
DW4-8C-C4,C,PHAN,1,87.5,DW4,8C,DW4_8C,DW,8,C,Mono,0,0,7,0,0,0,0,0
DW4-8C-C5,C,PHAN,1,0,DW4,8C,DW4_8C,DW,8,C,Mono,0,0,7,0,0,0,0,0
DW4-8C-C6,C,PHAN,1,0,DW4,8C,DW4_8C,DW,8,C,Mono,0,0,7,0,0,0,0,0
DW4-8C-C7,C,PHAN,1,175,DW4,8C,DW4_8C,DW,8,C,Mono,0,0,7,0,0,0,0,0
DW4-8C-C8,C,PHAN,1,175,DW4,8C,DW4_8C,DW,8,C,Mono,0,0,7,0,0,0,0,0
DW4-8D-D1,D,DAAE,0,0,DW4,8D,DW4_8D,DW,8,D,Mono,0,0,0,7,0,0,0,0
DW4-8D-D2,D,DAAE,1,86,DW4,8D,DW4_8D,DW,8,D,Mono,0,0,0,7,0,0,0,0
DW4-8D-D3,D,DAAE,1,215,DW4,8D,DW4_8D,DW,8,D,Mono,0,0,0,7,0,0,0,0
DW4-8D-D4,D,DAAE,1,344,DW4,8D,DW4_8D,DW,8,D,Mono,0,0,0,7,0,0,0,0
DW4-8D-D5,D,DAAE,1,43,DW4,8D,DW4_8D,DW,8,D,Mono,0,0,0,7,0,0,0,0
DW4-8D-D6,D,DAAE,1,129,DW4,8D,DW4_8D,DW,8,D,Mono,0,0,0,7,0,0,0,0
DW4-8D-D7,D,DAAE,0,0,DW4,8D,DW4_8D,DW,8,D,Mono,0,0,0,7,0,0,0,0
DW4-8D-D8,D,DAAE,0,0,DW4,8D,DW4_8D,DW,8,D,Mono,0,0,0,7,0,0,0,0
DW4-8AC-C1,C,PHAN,1,0,DW4,8AC,DW4_8AC,DW,8,AC,Co,4,0,3,0,0,0,0,0
DW4-8AC-C2,C,PHAN,0,0,DW4,8AC,DW4_8AC,DW,8,AC,Co,4,0,3,0,0,0,0,0
DW4-8AC-C3,C,PHAN,0,0,DW4,8AC,DW4_8AC,DW,8,AC,Co,4,0,3,0,0,0,0,0
DW4-8AC-C4,C,PHAN,0,0,DW4,8AC,DW4_8AC,DW,8,AC,Co,4,0,3,0,0,0,0,0
DW4-8AD-D1,D,DAAE,1,258,DW4,8AD,DW4_8AD,DW,8,AD,Co,4,0,0,3,0,0,0,0
DW4-8AD-D2,D,DAAE,1,86,DW4,8AD,DW4_8AD,DW,8,AD,Co,4,0,0,3,0,0,0,0
DW4-8AD-D3,D,DAAE,1,172,DW4,8AD,DW4_8AD,DW,8,AD,Co,4,0,0,3,0,0,0,0
DW4-8AD-D4,D,DAAE,1,301,DW4,8AD,DW4_8AD,DW,8,AD,Co,4,0,0,3,0,0,0,0
DW4-8BC-C1,C,PHAN,1,525,DW4,8BC,DW4_8BC,DW,8,BC,Co,0,4,3,0,0,0,0,0
DW4-8BC-C2,C,PHAN,1,962.5,DW4,8BC,DW4_8BC,DW,8,BC,Co,0,4,3,0,0,0,0,0
DW4-8BC-C3,C,PHAN,1,0,DW4,8BC,DW4_8BC,DW,8,BC,Co,0,4,3,0,0,0,0,0
DW4-8BC-C4,C,PHAN,0,0,DW4,8BC,DW4_8BC,DW,8,BC,Co,0,4,3,0,0,0,0,0
DW4-8BD-D1,D,DAAE,1,129,DW4,8BD,DW4_8BD,DW,8,BD,Co,0,4,0,3,0,0,0,0
DW4-8BD-D2,D,DAAE,1,258,DW4,8BD,DW4_8BD,DW,8,BD,Co,0,4,0,3,0,0,0,0
DW4-8BD-D3,D,DAAE,1,172,DW4,8BD,DW4_8BD,DW,8,BD,Co,0,4,0,3,0,0,0,0
DW4-8BD-D4,D,DAAE,1,86,DW4,8BD,DW4_8BD,DW,8,BD,Co,0,4,0,3,0,0,0,0
DW4-8CD-C1,C,PHAN,1,87.5,DW4,8CD,DW4_8CD,DW,8,CD,Co,0,0,3,4,0,0,0,0
DW4-8CD-C2,C,PHAN,1,175,DW4,8CD,DW4_8CD,DW,8,CD,Co,0,0,3,4,0,0,0,0
DW4-8CD-C3,C,PHAN,1,0,DW4,8CD,DW4_8CD,DW,8,CD,Co,0,0,3,4,0,0,0,0
DW4-8CD-C4,C,PHAN,0,0,DW4,8CD,DW4_8CD,DW,8,CD,Co,0,0,3,4,0,0,0,0
DW4-8CD-D1,D,DAAE,1,258,DW4,8CD,DW4_8CD,DW,8,CD,Co,0,0,4,3,0,0,0,0
DW4-8CD-D2,D,DAAE,1,129,DW4,8CD,DW4_8CD,DW,8,CD,Co,0,0,4,3,0,0,0,0
DW4-8CD-D3,D,DAAE,1,43,DW4,8CD,DW4_8CD,DW,8,CD,Co,0,0,4,3,0,0,0,0
DW4-8CD-D4,D,DAAE,1,344,DW4,8CD,DW4_8CD,DW,8,CD,Co,0,0,4,3,0,0,0,0
DW4-8CE-C1,C,PHAN,1,262.5,DW4,8CE,DW4_8CE,DW,8,CE,Co,0,0,3,0,4,0,0,0
DW4-8CE-C2,C,PHAN,1,525,DW4,8CE,DW4_8CE,DW,8,CE,Co,0,0,3,0,4,0,0,0
DW4-8CE-C3,C,PHAN,1,175,DW4,8CE,DW4_8CE,DW,8,CE,Co,0,0,3,0,4,0,0,0
DW4-8CE-C4,C,PHAN,1,87.5,DW4,8CE,DW4_8CE,DW,8,CE,Co,0,0,3,0,4,0,0,0
DW4-8CF-C1,C,PHAN,1,350,DW4,8CF,DW4_8CF,DW,8,CF,Co,0,0,3,0,0,4,0,0
DW4-8CF-C2,C,PHAN,1,0,DW4,8CF,DW4_8CF,DW,8,CF,Co,0,0,3,0,0,4,0,0
DW4-8CF-C3,C,PHAN,0,0,DW4,8CF,DW4_8CF,DW,8,CF,Co,0,0,3,0,0,4,0,0
DW4-8CF-C4,C,PHAN,1,262.5,DW4,8CF,DW4_8CF,DW,8,CF,Co,0,0,3,0,0,4,0,0
DW4-8CG-C1,C,PHAN,1,525,DW4,8CG,DW4_8CG,DW,8,CG,Co,0,0,3,0,0,0,4,0
DW4-8CG-C2,C,PHAN,1,700,DW4,8CG,DW4_8CG,DW,8,CG,Co,0,0,3,0,0,0,4,0
DW4-8CG-C3,C,PHAN,1,0,DW4,8CG,DW4_8CG,DW,8,CG,Co,0,0,3,0,0,0,4,0
DW4-8CG-C4,C,PHAN,0,0,DW4,8CG,DW4_8CG,DW,8,CG,Co,0,0,3,0,0,0,4,0
DW4-8CH-C1,C,PHAN,0,0,DW4,8CH,DW4_8CH,DW,8,CH,Co,0,0,3,0,0,0,0,4
DW4-8CH-C2,C,PHAN,0,0,DW4,8CH,DW4_8CH,DW,8,CH,Co,0,0,3,0,0,0,0,4
DW4-8CH-C3,C,PHAN,0,0,DW4,8CH,DW4_8CH,DW,8,CH,Co,0,0,3,0,0,0,0,4
DW4-8CH-C4,C,PHAN,0,0,DW4,8CH,DW4_8CH,DW,8,CH,Co,0,0,3,0,0,0,0,4
DW4-8DE-D1,D,DAAE,1,645,DW4,8DE,DW4_8DE,DW,8,DE,Co,0,0,0,3,4,0,0,0
DW4-8DE-D2,D,DAAE,1,258,DW4,8DE,DW4_8DE,DW,8,DE,Co,0,0,0,3,4,0,0,0
DW4-8DE-D3,D,DAAE,1,172,DW4,8DE,DW4_8DE,DW,8,DE,Co,0,0,0,3,4,0,0,0
DW4-8DE-D4,D,DAAE,1,129,DW4,8DE,DW4_8DE,DW,8,DE,Co,0,0,0,3,4,0,0,0
DW4-8DF-D1,D,DAAE,1,258,DW4,8DF,DW4_8DF,DW,8,DF,Co,0,0,0,3,0,4,0,0
DW4-8DF-D2,D,DAAE,1,172,DW4,8DF,DW4_8DF,DW,8,DF,Co,0,0,0,3,0,4,0,0
DW4-8DF-D3,D,DAAE,1,172,DW4,8DF,DW4_8DF,DW,8,DF,Co,0,0,0,3,0,4,0,0
DW4-8DF-D4,D,DAAE,0,0,DW4,8DF,DW4_8DF,DW,8,DF,Co,0,0,0,3,0,4,0,0
DW4-8DG-D1,D,DAAE,1,301,DW4,8DG,DW4_8DG,DW,8,DG,Co,0,0,0,3,0,0,4,0
DW4-8DG-D2,D,DAAE,1,43,DW4,8DG,DW4_8DG,DW,8,DG,Co,0,0,0,3,0,0,4,0
DW4-8DG-D3,D,DAAE,0,0,DW4,8DG,DW4_8DG,DW,8,DG,Co,0,0,0,3,0,0,4,0
DW4-8DG-D4,D,DAAE,1,301,DW4,8DG,DW4_8DG,DW,8,DG,Co,0,0,0,3,0,0,4,0
DW4-8DH-D1,D,DAAE,1,172,DW4,8DH,DW4_8DH,DW,8,DH,Co,0,0,0,3,0,0,0,4
DW4-8DH-D2,D,DAAE,1,129,DW4,8DH,DW4_8DH,DW,8,DH,Co,0,0,0,3,0,0,0,4
DW4-8DH-D3,D,DAAE,1,86,DW4,8DH,DW4_8DH,DW,8,DH,Co,0,0,0,3,0,0,0,4
DW4-8DH-D4,D,DAAE,1,473,DW4,8DH,DW4_8DH,DW,8,DH,Co,0,0,0,3,0,0,0,4
DD3-2C-C1,C,PHAN,1,612.5,DD3,2C,DD3_2C,DD,2,C,Mono,0,0,1,0,0,0,0,0
DD3-2C-C2,C,PHAN,1,787.5,DD3,2C,DD3_2C,DD,2,C,Mono,0,0,1,0,0,0,0,0
DD3-2D-D1,D,DAAE,1,301,DD3,2D,DD3_2D,DD,2,D,Mono,0,0,0,1,0,0,0,0
DD3-2D-D2,D,DAAE,0,0,DD3,2D,DD3_2D,DD,2,D,Mono,0,0,0,1,0,0,0,0
DD3-2AC-C,C,PHAN,1,262.5,DD3,2AC,DD3_2AC,DD,2,AC,Co,1,0,0,0,0,0,0,0
DD3-2AD-D,D,DAAE,1,301,DD3,2AD,DD3_2AD,DD,2,AD,Co,1,0,0,0,0,0,0,0
DD3-2BC-C,C,PHAN,1,2012.5,DD3,2BC,DD3_2BC,DD,2,BC,Co,0,1,0,0,0,0,0,0
DD3-2BD-D,D,DAAE,0,0,DD3,2BD,DD3_2BD,DD,2,BD,Co,0,1,0,0,0,0,0,0
DD3-2CD-C,C,PHAN,1,0,DD3,2CD,DD3_2CD,DD,2,CD,Co,0,0,0,1,0,0,0,0
DD3-2CD-D,D,DAAE,1,301,DD3,2CD,DD3_2CD,DD,2,CD,Co,0,0,1,0,0,0,0,0
DD3-2CE-C,C,PHAN,1,962.5,DD3,2CE,DD3_2CE,DD,2,CE,Co,0,0,0,0,1,0,0,0
DD3-2CF-C,C,PHAN,1,350,DD3,2CF,DD3_2CF,DD,2,CF,Co,0,0,0,0,0,1,0,0
DD3-2CG-C,C,PHAN,1,350,DD3,2CG,DD3_2CG,DD,2,CG,Co,0,0,0,0,0,0,1,0
DD3-2CH-C,C,PHAN,1,87.5,DD3,2CH,DD3_2CH,DD,2,CH,Co,0,0,0,0,0,0,0,1
DD3-2DE-D,D,DAAE,1,731,DD3,2DE,DD3_2DE,DD,2,DE,Co,0,0,0,0,1,0,0,0
DD3-2DF-D,D,DAAE,1,301,DD3,2DF,DD3_2DF,DD,2,DF,Co,0,0,0,0,0,1,0,0
DD3-2DG-D,D,DAAE,1,301,DD3,2DG,DD3_2DG,DD,2,DG,Co,0,0,0,0,0,0,1,0
DD3-2DH-D,D,DAAE,1,215,DD3,2DH,DD3_2DH,DD,2,DH,Co,0,0,0,0,0,0,0,1
DD3-4C-C1,C,PHAN,1,87.5,DD3,4C,DD3_4C,DD,4,C,Mono,0,0,3,0,0,0,0,0
DD3-4C-C2,C,PHAN,1,437.5,DD3,4C,DD3_4C,DD,4,C,Mono,0,0,3,0,0,0,0,0
DD3-4C-C3,C,PHAN,1,350,DD3,4C,DD3_4C,DD,4,C,Mono,0,0,3,0,0,0,0,0
DD3-4C-C4,C,PHAN,1,700,DD3,4C,DD3_4C,DD,4,C,Mono,0,0,3,0,0,0,0,0
DD3-4D-D1,D,DAAE,1,129,DD3,4D,DD3_4D,DD,4,D,Mono,0,0,0,3,0,0,0,0
DD3-4D-D2,D,DAAE,1,215,DD3,4D,DD3_4D,DD,4,D,Mono,0,0,0,3,0,0,0,0
DD3-4D-D3,D,DAAE,0,0,DD3,4D,DD3_4D,DD,4,D,Mono,0,0,0,3,0,0,0,0
DD3-4D-D4,D,DAAE,0,0,DD3,4D,DD3_4D,DD,4,D,Mono,0,0,0,3,0,0,0,0
DD3-4AC-C1,C,PHAN,1,175,DD3,4AC,DD3_4AC,DD,4,AC,Co,2,0,1,0,0,0,0,0
DD3-4AC-C2,C,PHAN,1,175,DD3,4AC,DD3_4AC,DD,4,AC,Co,2,0,1,0,0,0,0,0
DD3-4AD-D1,D,DAAE,0,0,DD3,4AD,DD3_4AD,DD,4,AD,Co,2,0,0,1,0,0,0,0
DD3-4AD-D2,D,DAAE,0,0,DD3,4AD,DD3_4AD,DD,4,AD,Co,2,0,0,1,0,0,0,0
DD3-4BC-C1,C,PHAN,1,262.5,DD3,4BC,DD3_4BC,DD,4,BC,Co,0,2,1,0,0,0,0,0
DD3-4BC-C2,C,PHAN,1,262.5,DD3,4BC,DD3_4BC,DD,4,BC,Co,0,2,1,0,0,0,0,0
DD3-4BD-D1,D,DAAE,1,301,DD3,4BD,DD3_4BD,DD,4,BD,Co,0,2,0,1,0,0,0,0
DD3-4BD-D2,D,DAAE,1,215,DD3,4BD,DD3_4BD,DD,4,BD,Co,0,2,0,1,0,0,0,0
DD3-4CD-C1,C,PHAN,1,0,DD3,4CD,DD3_4CD,DD,4,CD,Co,0,0,1,2,0,0,0,0
DD3-4CD-C2,C,PHAN,1,0,DD3,4CD,DD3_4CD,DD,4,CD,Co,0,0,1,2,0,0,0,0
DD3-4CD-D1,D,DAAE,1,258,DD3,4CD,DD3_4CD,DD,4,CD,Co,0,0,2,1,0,0,0,0
DD3-4CD-D2,D,DAAE,1,301,DD3,4CD,DD3_4CD,DD,4,CD,Co,0,0,2,1,0,0,0,0
DD3-4CE-C1,C,PHAN,1,1137.5,DD3,4CE,DD3_4CE,DD,4,CE,Co,0,0,1,0,2,0,0,0
DD3-4CE-C2,C,PHAN,1,87.5,DD3,4CE,DD3_4CE,DD,4,CE,Co,0,0,1,0,2,0,0,0
DD3-4CF-C1,C,PHAN,1,0,DD3,4CF,DD3_4CF,DD,4,CF,Co,0,0,1,0,0,2,0,0
DD3-4CF-C2,C,PHAN,1,0,DD3,4CF,DD3_4CF,DD,4,CF,Co,0,0,1,0,0,2,0,0
DD3-4CG-C1,C,PHAN,1,0,DD3,4CG,DD3_4CG,DD,4,CG,Co,0,0,1,0,0,0,2,0
DD3-4CG-C2,C,PHAN,1,0,DD3,4CG,DD3_4CG,DD,4,CG,Co,0,0,1,0,0,0,2,0
DD3-4CH-C1,C,PHAN,1,0,DD3,4CH,DD3_4CH,DD,4,CH,Co,0,0,1,0,0,0,0,2
DD3-4CH-C2,C,PHAN,1,0,DD3,4CH,DD3_4CH,DD,4,CH,Co,0,0,1,0,0,0,0,2
DD3-4DE-D1,D,DAAE,1,344,DD3,4DE,DD3_4DE,DD,4,DE,Co,0,0,0,1,2,0,0,0
DD3-4DE-D2,D,DAAE,0,0,DD3,4DE,DD3_4DE,DD,4,DE,Co,0,0,0,1,2,0,0,0
DD3-4DF-D1,D,DAAE,1,129,DD3,4DF,DD3_4DF,DD,4,DF,Co,0,0,0,1,0,2,0,0
DD3-4DF-D2,D,DAAE,1,215,DD3,4DF,DD3_4DF,DD,4,DF,Co,0,0,0,1,0,2,0,0
DD3-4DG-D1,D,DAAE,1,129,DD3,4DG,DD3_4DG,DD,4,DG,Co,0,0,0,1,0,0,2,0
DD3-4DG-D2,D,DAAE,0,0,DD3,4DG,DD3_4DG,DD,4,DG,Co,0,0,0,1,0,0,2,0
DD3-4DH-D1,D,DAAE,1,215,DD3,4DH,DD3_4DH,DD,4,DH,Co,0,0,0,1,0,0,0,2
DD3-4DH-D2,D,DAAE,1,172,DD3,4DH,DD3_4DH,DD,4,DH,Co,0,0,0,1,0,0,0,2
DD3-8C-C1,C,PHAN,1,175,DD3,8C,DD3_8C,DD,8,C,Mono,0,0,7,0,0,0,0,0
DD3-8C-C2,C,PHAN,1,0,DD3,8C,DD3_8C,DD,8,C,Mono,0,0,7,0,0,0,0,0
DD3-8C-C3,C,PHAN,1,350,DD3,8C,DD3_8C,DD,8,C,Mono,0,0,7,0,0,0,0,0
DD3-8C-C4,C,PHAN,1,0,DD3,8C,DD3_8C,DD,8,C,Mono,0,0,7,0,0,0,0,0
DD3-8C-C5,C,PHAN,1,87.5,DD3,8C,DD3_8C,DD,8,C,Mono,0,0,7,0,0,0,0,0
DD3-8C-C6,C,PHAN,1,262.5,DD3,8C,DD3_8C,DD,8,C,Mono,0,0,7,0,0,0,0,0
DD3-8C-C7,C,PHAN,0,0,DD3,8C,DD3_8C,DD,8,C,Mono,0,0,7,0,0,0,0,0
DD3-8C-C8,C,PHAN,1,262.5,DD3,8C,DD3_8C,DD,8,C,Mono,0,0,7,0,0,0,0,0
DD3-8D-D1,D,DAAE,1,215,DD3,8D,DD3_8D,DD,8,D,Mono,0,0,0,7,0,0,0,0
DD3-8D-D2,D,DAAE,1,86,DD3,8D,DD3_8D,DD,8,D,Mono,0,0,0,7,0,0,0,0
DD3-8D-D3,D,DAAE,1,172,DD3,8D,DD3_8D,DD,8,D,Mono,0,0,0,7,0,0,0,0
DD3-8D-D4,D,DAAE,1,129,DD3,8D,DD3_8D,DD,8,D,Mono,0,0,0,7,0,0,0,0
DD3-8D-D5,D,DAAE,1,129,DD3,8D,DD3_8D,DD,8,D,Mono,0,0,0,7,0,0,0,0
DD3-8D-D6,D,DAAE,1,215,DD3,8D,DD3_8D,DD,8,D,Mono,0,0,0,7,0,0,0,0
DD3-8D-D7,D,DAAE,0,0,DD3,8D,DD3_8D,DD,8,D,Mono,0,0,0,7,0,0,0,0
DD3-8D-D8,D,DAAE,0,0,DD3,8D,DD3_8D,DD,8,D,Mono,0,0,0,7,0,0,0,0
DD3-8AC-C1,C,PHAN,0,0,DD3,8AC,DD3_8AC,DD,8,AC,Co,4,0,3,0,0,0,0,0
DD3-8AC-C2,C,PHAN,0,0,DD3,8AC,DD3_8AC,DD,8,AC,Co,4,0,3,0,0,0,0,0
DD3-8AC-C3,C,PHAN,0,0,DD3,8AC,DD3_8AC,DD,8,AC,Co,4,0,3,0,0,0,0,0
DD3-8AC-C4,C,PHAN,0,0,DD3,8AC,DD3_8AC,DD,8,AC,Co,4,0,3,0,0,0,0,0
DD3-8AD-D1,D,DAAE,1,129,DD3,8AD,DD3_8AD,DD,8,AD,Co,4,0,0,3,0,0,0,0
DD3-8AD-D2,D,DAAE,1,215,DD3,8AD,DD3_8AD,DD,8,AD,Co,4,0,0,3,0,0,0,0
DD3-8AD-D3,D,DAAE,1,172,DD3,8AD,DD3_8AD,DD,8,AD,Co,4,0,0,3,0,0,0,0
DD3-8AD-D4,D,DAAE,0,0,DD3,8AD,DD3_8AD,DD,8,AD,Co,4,0,0,3,0,0,0,0
DD3-8BC-C1,C,PHAN,1,0,DD3,8BC,DD3_8BC,DD,8,BC,Co,0,4,3,0,0,0,0,0
DD3-8BC-C2,C,PHAN,1,0,DD3,8BC,DD3_8BC,DD,8,BC,Co,0,4,3,0,0,0,0,0
DD3-8BC-C3,C,PHAN,1,175,DD3,8BC,DD3_8BC,DD,8,BC,Co,0,4,3,0,0,0,0,0
DD3-8BC-C4,C,PHAN,1,175,DD3,8BC,DD3_8BC,DD,8,BC,Co,0,4,3,0,0,0,0,0
DD3-8BD-D1,D,DAAE,1,172,DD3,8BD,DD3_8BD,DD,8,BD,Co,0,4,0,3,0,0,0,0
DD3-8BD-D2,D,DAAE,1,129,DD3,8BD,DD3_8BD,DD,8,BD,Co,0,4,0,3,0,0,0,0
DD3-8BD-D3,D,DAAE,1,86,DD3,8BD,DD3_8BD,DD,8,BD,Co,0,4,0,3,0,0,0,0
DD3-8BD-D4,D,DAAE,1,172,DD3,8BD,DD3_8BD,DD,8,BD,Co,0,4,0,3,0,0,0,0
DD3-8CD-C1,C,PHAN,1,0,DD3,8CD,DD3_8CD,DD,8,CD,Co,0,0,3,4,0,0,0,0
DD3-8CD-C2,C,PHAN,1,0,DD3,8CD,DD3_8CD,DD,8,CD,Co,0,0,3,4,0,0,0,0
DD3-8CD-C3,C,PHAN,1,0,DD3,8CD,DD3_8CD,DD,8,CD,Co,0,0,3,4,0,0,0,0
DD3-8CD-C4,C,PHAN,0,0,DD3,8CD,DD3_8CD,DD,8,CD,Co,0,0,3,4,0,0,0,0
DD3-8CD-D1,D,DAAE,1,215,DD3,8CD,DD3_8CD,DD,8,CD,Co,0,0,4,3,0,0,0,0
DD3-8CD-D2,D,DAAE,1,215,DD3,8CD,DD3_8CD,DD,8,CD,Co,0,0,4,3,0,0,0,0
DD3-8CD-D3,D,DAAE,1,172,DD3,8CD,DD3_8CD,DD,8,CD,Co,0,0,4,3,0,0,0,0
DD3-8CD-D4,D,DAAE,1,172,DD3,8CD,DD3_8CD,DD,8,CD,Co,0,0,4,3,0,0,0,0
DD3-8CE-C1,C,PHAN,1,0,DD3,8CE,DD3_8CE,DD,8,CE,Co,0,0,3,0,4,0,0,0
DD3-8CE-C2,C,PHAN,1,175,DD3,8CE,DD3_8CE,DD,8,CE,Co,0,0,3,0,4,0,0,0
DD3-8CE-C3,C,PHAN,0,0,DD3,8CE,DD3_8CE,DD,8,CE,Co,0,0,3,0,4,0,0,0
DD3-8CE-C4,C,PHAN,1,437.5,DD3,8CE,DD3_8CE,DD,8,CE,Co,0,0,3,0,4,0,0,0
DD3-8CF-C1,C,PHAN,0,0,DD3,8CF,DD3_8CF,DD,8,CF,Co,0,0,3,0,0,4,0,0
DD3-8CF-C2,C,PHAN,0,0,DD3,8CF,DD3_8CF,DD,8,CF,Co,0,0,3,0,0,4,0,0
DD3-8CF-C3,C,PHAN,1,0,DD3,8CF,DD3_8CF,DD,8,CF,Co,0,0,3,0,0,4,0,0
DD3-8CF-C4,C,PHAN,1,0,DD3,8CF,DD3_8CF,DD,8,CF,Co,0,0,3,0,0,4,0,0
DD3-8CG-C1,C,PHAN,1,0,DD3,8CG,DD3_8CG,DD,8,CG,Co,0,0,3,0,0,0,4,0
DD3-8CG-C2,C,PHAN,1,0,DD3,8CG,DD3_8CG,DD,8,CG,Co,0,0,3,0,0,0,4,0
DD3-8CG-C3,C,PHAN,0,0,DD3,8CG,DD3_8CG,DD,8,CG,Co,0,0,3,0,0,0,4,0
DD3-8CG-C4,C,PHAN,1,0,DD3,8CG,DD3_8CG,DD,8,CG,Co,0,0,3,0,0,0,4,0
DD3-8CH-C1,C,PHAN,0,0,DD3,8CH,DD3_8CH,DD,8,CH,Co,0,0,3,0,0,0,0,4
DD3-8CH-C2,C,PHAN,1,0,DD3,8CH,DD3_8CH,DD,8,CH,Co,0,0,3,0,0,0,0,4
DD3-8CH-C3,C,PHAN,1,87.5,DD3,8CH,DD3_8CH,DD,8,CH,Co,0,0,3,0,0,0,0,4
DD3-8CH-C4,C,PHAN,1,87.5,DD3,8CH,DD3_8CH,DD,8,CH,Co,0,0,3,0,0,0,0,4
DD3-8DE-D1,D,DAAE,1,129,DD3,8DE,DD3_8DE,DD,8,DE,Co,0,0,0,3,4,0,0,0
DD3-8DE-D2,D,DAAE,1,86,DD3,8DE,DD3_8DE,DD,8,DE,Co,0,0,0,3,4,0,0,0
DD3-8DE-D3,D,DAAE,1,129,DD3,8DE,DD3_8DE,DD,8,DE,Co,0,0,0,3,4,0,0,0
DD3-8DE-D4,D,DAAE,1,258,DD3,8DE,DD3_8DE,DD,8,DE,Co,0,0,0,3,4,0,0,0
DD3-8DF-D1,D,DAAE,1,301,DD3,8DF,DD3_8DF,DD,8,DF,Co,0,0,0,3,0,4,0,0
DD3-8DF-D2,D,DAAE,1,172,DD3,8DF,DD3_8DF,DD,8,DF,Co,0,0,0,3,0,4,0,0
DD3-8DF-D3,D,DAAE,1,215,DD3,8DF,DD3_8DF,DD,8,DF,Co,0,0,0,3,0,4,0,0
DD3-8DF-D4,D,DAAE,0,0,DD3,8DF,DD3_8DF,DD,8,DF,Co,0,0,0,3,0,4,0,0
DD3-8DG-D1,D,DAAE,1,129,DD3,8DG,DD3_8DG,DD,8,DG,Co,0,0,0,3,0,0,4,0
DD3-8DG-D2,D,DAAE,1,129,DD3,8DG,DD3_8DG,DD,8,DG,Co,0,0,0,3,0,0,4,0
DD3-8DG-D3,D,DAAE,0,0,DD3,8DG,DD3_8DG,DD,8,DG,Co,0,0,0,3,0,0,4,0
DD3-8DG-D4,D,DAAE,0,0,DD3,8DG,DD3_8DG,DD,8,DG,Co,0,0,0,3,0,0,4,0
DD3-8DH-D1,D,DAAE,1,172,DD3,8DH,DD3_8DH,DD,8,DH,Co,0,0,0,3,0,0,0,4
DD3-8DH-D2,D,DAAE,1,129,DD3,8DH,DD3_8DH,DD,8,DH,Co,0,0,0,3,0,0,0,4
DD3-8DH-D3,D,DAAE,0,0,DD3,8DH,DD3_8DH,DD,8,DH,Co,0,0,0,3,0,0,0,4
DD3-8DH-D4,D,DAAE,0,0,DD3,8DH,DD3_8DH,DD,8,DH,Co,0,0,0,3,0,0,0,4
DD4-2C-C1,C,PHAN,1,612.5,DD4,2C,DD4_2C,DD,2,C,Mono,0,0,1,0,0,0,0,0
DD4-2C-C2,C,PHAN,1,962.5,DD4,2C,DD4_2C,DD,2,C,Mono,0,0,1,0,0,0,0,0
DD4-2D-D1,D,DAAE,1,559,DD4,2D,DD4_2D,DD,2,D,Mono,0,0,0,1,0,0,0,0
DD4-2D-D2,D,DAAE,0,0,DD4,2D,DD4_2D,DD,2,D,Mono,0,0,0,1,0,0,0,0
DD4-2AC-C,C,PHAN,0,0,DD4,2AC,DD4_2AC,DD,2,AC,Co,1,0,0,0,0,0,0,0
DD4-2AD-D,D,DAAE,1,430,DD4,2AD,DD4_2AD,DD,2,AD,Co,1,0,0,0,0,0,0,0
DD4-2BC-C,C,PHAN,1,1487.5,DD4,2BC,DD4_2BC,DD,2,BC,Co,0,1,0,0,0,0,0,0
DD4-2BD-D,D,DAAE,1,602,DD4,2BD,DD4_2BD,DD,2,BD,Co,0,1,0,0,0,0,0,0
DD4-2CD-C,C,PHAN,1,1400,DD4,2CD,DD4_2CD,DD,2,CD,Co,0,0,0,1,0,0,0,0
DD4-2CD-D,D,DAAE,0,0,DD4,2CD,DD4_2CD,DD,2,CD,Co,0,0,1,0,0,0,0,0
DD4-2CE-C,C,PHAN,1,2450,DD4,2CE,DD4_2CE,DD,2,CE,Co,0,0,0,0,1,0,0,0
DD4-2CF-C,C,PHAN,1,700,DD4,2CF,DD4_2CF,DD,2,CF,Co,0,0,0,0,0,1,0,0
DD4-2CG-C,C,PHAN,1,875,DD4,2CG,DD4_2CG,DD,2,CG,Co,0,0,0,0,0,0,1,0
DD4-2CH-C,C,PHAN,0,0,DD4,2CH,DD4_2CH,DD,2,CH,Co,0,0,0,0,0,0,0,1