No,Sp,Species,Survival,num_seeds,Block,Pot,Pot,Raintype,Density,Composition,Culture,n_BIPI,n_OPCO,n_PHAN,n_DAAE,n_POHY,n_PRCL,n_AGCO,n_LUHY
WD3-4H-H1,H,LUHY,1,1258,WD3,4H,WD3_4H,WD,4,H,Mono,0,0,0,0,0,0,0,3
WD3-4H-H2,H,LUHY,1,1480,WD3,4H,WD3_4H,WD,4,H,Mono,0,0,0,0,0,0,0,3
WD3-4H-H3,H,LUHY,1,1480,WD3,4H,WD3_4H,WD,4,H,Mono,0,0,0,0,0,0,0,3
WD3-4H-H4,H,LUHY,1,740,WD3,4H,WD3_4H,WD,4,H,Mono,0,0,0,0,0,0,0,3
WD3-4AB-B1,B,OPCO,1,22.74,WD3,4AB,WD3_4AB,WD,4,AB,Co,2,1,0,0,0,0,0,0
WD3-4AB-B2,B,OPCO,1,0,WD3,4AB,WD3_4AB,WD,4,AB,Co,2,1,0,0,0,0,0,0
WD3-4AH-H1,H,LUHY,1,296,WD3,4AH,WD3_4AH,WD,4,AH,Co,2,0,0,0,0,0,0,1
WD3-4AH-H2,H,LUHY,1,518,WD3,4AH,WD3_4AH,WD,4,AH,Co,2,0,0,0,0,0,0,1
WD3-4BC-B1,B,OPCO,1,75.8,WD3,4BC,WD3_4BC,WD,4,BC,Co,0,1,2,0,0,0,0,0
WD3-4BC-B2,B,OPCO,1,136.44,WD3,4BC,WD3_4BC,WD,4,BC,Co,0,1,2,0,0,0,0,0
WD3-4BD-B1,B,OPCO,1,0,WD3,4BD,WD3_4BD,WD,4,BD,Co,0,1,0,2,0,0,0,0
WD3-4BD-B2,B,OPCO,1,30.32,WD3,4BD,WD3_4BD,WD,4,BD,Co,0,1,0,2,0,0,0,0
WD3-4BE-B1,B,OPCO,1,106.12,WD3,4BE,WD3_4BE,WD,4,BE,Co,0,1,0,0,2,0,0,0
WD3-4BE-B2,B,OPCO,1,68.22,WD3,4BE,WD3_4BE,WD,4,BE,Co,0,1,0,0,2,0,0,0
WD3-4BF-B1,B,OPCO,1,22.74,WD3,4BF,WD3_4BF,WD,4,BF,Co,0,1,0,0,0,2,0,0
WD3-4BF-B2,B,OPCO,1,0,WD3,4BF,WD3_4BF,WD,4,BF,Co,0,1,0,0,0,2,0,0
WD3-4BG-B1,B,OPCO,1,0,WD3,4BG,WD3_4BG,WD,4,BG,Co,0,1,0,0,0,0,2,0
WD3-4BG-B2,B,OPCO,1,90.96,WD3,4BG,WD3_4BG,WD,4,BG,Co,0,1,0,0,0,0,2,0
WD3-4BH-B1,B,OPCO,1,0,WD3,4BH,WD3_4BH,WD,4,BH,Co,0,1,0,0,0,0,0,2
WD3-4BH-B2,B,OPCO,1,0,WD3,4BH,WD3_4BH,WD,4,BH,Co,0,1,0,0,0,0,0,2
WD3-4BH-H1,H,LUHY,1,3256,WD3,4BH,WD3_4BH,WD,4,BH,Co,0,2,0,0,0,0,0,1
WD3-4BH-H2,H,LUHY,1,1480,WD3,4BH,WD3_4BH,WD,4,BH,Co,0,2,0,0,0,0,0,1
WD3-4CH-H1,H,LUHY,1,2072,WD3,4CH,WD3_4CH,WD,4,CH,Co,0,0,2,0,0,0,0,1
WD3-4CH-H2,H,LUHY,1,1924,WD3,4CH,WD3_4CH,WD,4,CH,Co,0,0,2,0,0,0,0,1
WD3-4DH-H1,H,LUHY,1,3626,WD3,4DH,WD3_4DH,WD,4,DH,Co,0,0,0,2,0,0,0,1
WD3-4DH-H2,H,LUHY,1,3034,WD3,4DH,WD3_4DH,WD,4,DH,Co,0,0,0,2,0,0,0,1
WD3-4EH-H1,H,LUHY,1,2146,WD3,4EH,WD3_4EH,WD,4,EH,Co,0,0,0,0,2,0,0,1
WD3-4EH-H2,H,LUHY,1,2220,WD3,4EH,WD3_4EH,WD,4,EH,Co,0,0,0,0,2,0,0,1
WD3-4FH-H1,H,LUHY,1,2664,WD3,4FH,WD3_4FH,WD,4,FH,Co,0,0,0,0,0,2,0,1
WD3-4FH-H2,H,LUHY,1,2368,WD3,4FH,WD3_4FH,WD,4,FH,Co,0,0,0,0,0,2,0,1
WD3-4GH-H1,H,LUHY,1,1184,WD3,4GH,WD3_4GH,WD,4,GH,Co,0,0,0,0,0,0,2,1
WD3-4GH-H2,H,LUHY,1,1332,WD3,4GH,WD3_4GH,WD,4,GH,Co,0,0,0,0,0,0,2,1
WD3-8B-B1,B,OPCO,1,68.22,WD3,8B,WD3_8B,WD,8,B,Mono,0,7,0,0,0,0,0,0
WD3-8B-B2,B,OPCO,1,0,WD3,8B,WD3_8B,WD,8,B,Mono,0,7,0,0,0,0,0,0
WD3-8B-B3,B,OPCO,1,0,WD3,8B,WD3_8B,WD,8,B,Mono,0,7,0,0,0,0,0,0
WD3-8B-B4,B,OPCO,1,30.32,WD3,8B,WD3_8B,WD,8,B,Mono,0,7,0,0,0,0,0,0
WD3-8B-B5,B,OPCO,1,68.22,WD3,8B,WD3_8B,WD,8,B,Mono,0,7,0,0,0,0,0,0
WD3-8B-B6,B,OPCO,1,30.32,WD3,8B,WD3_8B,WD,8,B,Mono,0,7,0,0,0,0,0,0
WD3-8B-B7,B,OPCO,1,30.32,WD3,8B,WD3_8B,WD,8,B,Mono,0,7,0,0,0,0,0,0
WD3-8B-B8,B,OPCO,1,30.32,WD3,8B,WD3_8B,WD,8,B,Mono,0,7,0,0,0,0,0,0
WD3-8H-H1,H,LUHY,1,888,WD3,8H,WD3_8H,WD,8,H,Mono,0,0,7,0,0,0,0,0
WD3-8H-H2,H,LUHY,1,962,WD3,8H,WD3_8H,WD,8,H,Mono,0,0,7,0,0,0,0,0
WD3-8H-H3,H,LUHY,1,814,WD3,8H,WD3_8H,WD,8,H,Mono,0,0,7,0,0,0,0,0
WD3-8H-H4,H,LUHY,1,814,WD3,8H,WD3_8H,WD,8,H,Mono,0,0,7,0,0,0,0,0
WD3-8H-H5,H,LUHY,1,444,WD3,8H,WD3_8H,WD,8,H,Mono,0,0,7,0,0,0,0,0
WD3-8H-H6,H,LUHY,1,666,WD3,8H,WD3_8H,WD,8,H,Mono,0,0,7,0,0,0,0,0
WD3-8H-H7,H,LUHY,1,1332,WD3,8H,WD3_8H,WD,8,H,Mono,0,0,7,0,0,0,0,0
WD3-8H-H8,H,LUHY,1,962,WD3,8H,WD3_8H,WD,8,H,Mono,0,0,7,0,0,0,0,0
WD3-8AB-B1,B,OPCO,1,0,WD3,8AB,WD3_8AB,WD,8,AB,Co,4,3,0,0,0,0,0,0
WD3-8AB-B2,B,OPCO,1,0,WD3,8AB,WD3_8AB,WD,8,AB,Co,4,3,0,0,0,0,0,0
WD3-8AB-B3,B,OPCO,1,30.32,WD3,8AB,WD3_8AB,WD,8,AB,Co,4,3,0,0,0,0,0,0
WD3-8AB-B4,B,OPCO,1,0,WD3,8AB,WD3_8AB,WD,8,AB,Co,4,3,0,0,0,0,0,0
WD3-8AH-H1,H,LUHY,1,0,WD3,8AH,WD3_8AH,WD,8,AH,Co,4,0,0,0,0,0,0,3
WD3-8AH-H2,H,LUHY,1,1184,WD3,8AH,WD3_8AH,WD,8,AH,Co,4,0,0,0,0,0,0,3
WD3-8AH-H3,H,LUHY,1,1628,WD3,8AH,WD3_8AH,WD,8,AH,Co,4,0,0,0,0,0,0,3
WD3-8AH-H4,H,LUHY,1,1184,WD3,8AH,WD3_8AH,WD,8,AH,Co,4,0,0,0,0,0,0,3
WD3-8BC-B1,B,OPCO,1,60.64,WD3,8BC,WD3_8BC,WD,8,BC,Co,0,3,4,0,0,0,0,0
WD3-8BC-B2,B,OPCO,1,128.86,WD3,8BC,WD3_8BC,WD,8,BC,Co,0,3,4,0,0,0,0,0
WD3-8BC-B3,B,OPCO,1,30.32,WD3,8BC,WD3_8BC,WD,8,BC,Co,0,3,4,0,0,0,0,0
WD3-8BC-B4,B,OPCO,1,98.54,WD3,8BC,WD3_8BC,WD,8,BC,Co,0,3,4,0,0,0,0,0
WD3-8BD-B1,B,OPCO,1,15.16,WD3,8BD,WD3_8BD,WD,8,BD,Co,0,3,0,4,0,0,0,0
WD3-8BD-B2,B,OPCO,1,0,WD3,8BD,WD3_8BD,WD,8,BD,Co,0,3,0,4,0,0,0,0
WD3-8BD-B3,B,OPCO,1,30.32,WD3,8BD,WD3_8BD,WD,8,BD,Co,0,3,0,4,0,0,0,0
WD3-8BD-B4,B,OPCO,1,90.96,WD3,8BD,WD3_8BD,WD,8,BD,Co,0,3,0,4,0,0,0,0
WD3-8BE-B1,B,OPCO,1,30.32,WD3,8BE,WD3_8BE,WD,8,BE,Co,0,3,0,0,4,0,0,0
WD3-8BE-B2,B,OPCO,1,0,WD3,8BE,WD3_8BE,WD,8,BE,Co,0,3,0,0,4,0,0,0
WD3-8BE-B3,B,OPCO,1,68.22,WD3,8BE,WD3_8BE,WD,8,BE,Co,0,3,0,0,4,0,0,0
WD3-8BE-B4,B,OPCO,1,0,WD3,8BE,WD3_8BE,WD,8,BE,Co,0,3,0,0,4,0,0,0
WD3-8BF-B1,B,OPCO,1,0,WD3,8BF,WD3_8BF,WD,8,BF,Co,0,3,0,0,0,4,0,0
WD3-8BF-B2,B,OPCO,1,0,WD3,8BF,WD3_8BF,WD,8,BF,Co,0,3,0,0,0,4,0,0
WD3-8BF-B3,B,OPCO,1,0,WD3,8BF,WD3_8BF,WD,8,BF,Co,0,3,0,0,0,4,0,0
WD3-8BF-B4,B,OPCO,1,53.06,WD3,8BF,WD3_8BF,WD,8,BF,Co,0,3,0,0,0,4,0,0
WD3-8BG-B1,B,OPCO,1,37.9,WD3,8BG,WD3_8BG,WD,8,BG,Co,0,3,0,0,0,0,4,0
WD3-8BG-B2,B,OPCO,1,0,WD3,8BG,WD3_8BG,WD,8,BG,Co,0,3,0,0,0,0,4,0
WD3-8BG-B3,B,OPCO,1,0,WD3,8BG,WD3_8BG,WD,8,BG,Co,0,3,0,0,0,0,4,0
WD3-8BG-B4,B,OPCO,1,22.74,WD3,8BG,WD3_8BG,WD,8,BG,Co,0,3,0,0,0,0,4,0
WD3-8BH-B1,B,OPCO,1,0,WD3,8BH,WD3_8BH,WD,8,BH,Co,0,3,0,0,0,0,0,4
WD3-8BH-B2,B,OPCO,1,0,WD3,8BH,WD3_8BH,WD,8,BH,Co,0,3,0,0,0,0,0,4
WD3-8BH-B3,B,OPCO,1,0,WD3,8BH,WD3_8BH,WD,8,BH,Co,0,3,0,0,0,0,0,4
WD3-8BH-B4,B,OPCO,1,0,WD3,8BH,WD3_8BH,WD,8,BH,Co,0,3,0,0,0,0,0,4
WD3-8BH-H1,H,LUHY,1,1480,WD3,8BH,WD3_8BH,WD,8,BH,Co,0,4,0,0,0,0,0,3
WD3-8BH-H2,H,LUHY,1,1258,WD3,8BH,WD3_8BH,WD,8,BH,Co,0,4,0,0,0,0,0,3
WD3-8BH-H3,H,LUHY,1,1258,WD3,8BH,WD3_8BH,WD,8,BH,Co,0,4,0,0,0,0,0,3
WD3-8BH-H4,H,LUHY,1,1258,WD3,8BH,WD3_8BH,WD,8,BH,Co,0,4,0,0,0,0,0,3
WD3-8CH-H1,H,LUHY,1,1702,WD3,8CH,WD3_8CH,WD,8,CH,Co,0,0,4,0,0,0,0,3
WD3-8CH-H2,H,LUHY,1,1258,WD3,8CH,WD3_8CH,WD,8,CH,Co,0,0,4,0,0,0,0,3
WD3-8CH-H3,H,LUHY,1,2146,WD3,8CH,WD3_8CH,WD,8,CH,Co,0,0,4,0,0,0,0,3
WD3-8CH-H4,H,LUHY,1,2664,WD3,8CH,WD3_8CH,WD,8,CH,Co,0,0,4,0,0,0,0,3
WD3-8DH-H1,H,LUHY,1,666,WD3,8DH,WD3_8DH,WD,8,DH,Co,0,0,0,4,0,0,0,3
WD3-8DH-H2,H,LUHY,1,1036,WD3,8DH,WD3_8DH,WD,8,DH,Co,0,0,0,4,0,0,0,3
WD3-8DH-H3,H,LUHY,1,740,WD3,8DH,WD3_8DH,WD,8,DH,Co,0,0,0,4,0,0,0,3
WD3-8DH-H4,H,LUHY,1,1036,WD3,8DH,WD3_8DH,WD,8,DH,Co,0,0,0,4,0,0,0,3
WD3-8EH-H1,H,LUHY,1,370,WD3,8EH,WD3_8EH,WD,8,EH,Co,0,0,0,0,4,0,0,3
WD3-8EH-H2,H,LUHY,1,740,WD3,8EH,WD3_8EH,WD,8,EH,Co,0,0,0,0,4,0,0,3
WD3-8EH-H3,H,LUHY,1,1036,WD3,8EH,WD3_8EH,WD,8,EH,Co,0,0,0,0,4,0,0,3
WD3-8EH-H4,H,LUHY,1,888,WD3,8EH,WD3_8EH,WD,8,EH,Co,0,0,0,0,4,0,0,3
WD3-8FH-H1,H,LUHY,1,444,WD3,8FH,WD3_8FH,WD,8,FH,Co,0,0,0,0,0,4,0,3
WD3-8FH-H2,H,LUHY,1,888,WD3,8FH,WD3_8FH,WD,8,FH,Co,0,0,0,0,0,4,0,3
WD3-8FH-H3,H,LUHY,1,518,WD3,8FH,WD3_8FH,WD,8,FH,Co,0,0,0,0,0,4,0,3
WD3-8FH-H4,H,LUHY,1,1480,WD3,8FH,WD3_8FH,WD,8,FH,Co,0,0,0,0,0,4,0,3
WD3-8GH-H1,H,LUHY,1,1110,WD3,8GH,WD3_8GH,WD,8,GH,Co,0,0,0,0,0,0,4,3
WD3-8GH-H2,H,LUHY,1,1628,WD3,8GH,WD3_8GH,WD,8,GH,Co,0,0,0,0,0,0,4,3
WD3-8GH-H3,H,LUHY,1,962,WD3,8GH,WD3_8GH,WD,8,GH,Co,0,0,0,0,0,0,4,3
WD3-8GH-H4,H,LUHY,1,1406,WD3,8GH,WD3_8GH,WD,8,GH,Co,0,0,0,0,0,0,4,3
WD4-2B-B1,B,OPCO,1,189.5,WD4,2B,WD4_2B,WD,2,B,Mono,0,1,0,0,0,0,0,0
WD4-2B-B2,B,OPCO,1,159.18,WD4,2B,WD4_2B,WD,2,B,Mono,0,1,0,0,0,0,0,0
WD4-2H-H1,H,LUHY,1,1110,WD4,2H,WD4_2H,WD,2,H,Mono,0,0,0,0,0,0,0,1
WD4-2H-H2,H,LUHY,1,370,WD4,2H,WD4_2H,WD,2,H,Mono,0,0,0,0,0,0,0,1
WD4-2AB-B,B,OPCO,1,60.64,WD4,2AB,WD4_2AB,WD,2,AB,Co,1,0,0,0,0,0,0,0
WD4-2AH-H,H,LUHY,1,814,WD4,2AH,WD4_2AH,WD,2,AH,Co,1,0,0,0,0,0,0,0
WD4-2BC-B,B,OPCO,1,507.86,WD4,2BC,WD4_2BC,WD,2,BC,Co,0,0,1,0,0,0,0,0
WD4-2BD-B,B,OPCO,1,68.22,WD4,2BD,WD4_2BD,WD,2,BD,Co,0,0,0,1,0,0,0,0
WD4-2BE-B,B,OPCO,1,136.44,WD4,2BE,WD4_2BE,WD,2,BE,Co,0,0,0,0,1,0,0,0
WD4-2BF-B,B,OPCO,1,181.92,WD4,2BF,WD4_2BF,WD,2,BF,Co,0,0,0,0,0,1,0,0
WD4-2BG-B,B,OPCO,1,68.22,WD4,2BG,WD4_2BG,WD,2,BG,Co,0,0,0,0,0,0,1,0
WD4-2BH-B,B,OPCO,1,113.7,WD4,2BH,WD4_2BH,WD,2,BH,Co,0,0,0,0,0,0,0,1
WD4-2BH-H,H,LUHY,1,2516,WD4,2BH,WD4_2BH,WD,2,BH,Co,0,1,0,0,0,0,0,0
WD4-2CH-H,H,LUHY,1,296,WD4,2CH,WD4_2CH,WD,2,CH,Co,0,0,1,0,0,0,0,0
WD4-2DH-H,H,LUHY,1,2516,WD4,2DH,WD4_2DH,WD,2,DH,Co,0,0,0,1,0,0,0,0
WD4-2FH-H,H,LUHY,1,1036,WD4,2FH,WD4_2FH,WD,2,FH,Co,0,0,0,0,0,1,0,0
WD4-2GH-H,H,LUHY,1,740,WD4,2GH,WD4_2GH,WD,2,GH,Co,0,0,0,0,0,0,1,0
WD4-4B-B1,B,OPCO,1,174.34,WD4,4B,WD4_4B,WD,4,B,Mono,0,3,0,0,0,0,0,0
WD4-4B-B2,B,OPCO,1,136.44,WD4,4B,WD4_4B,WD,4,B,Mono,0,3,0,0,0,0,0,0
WD4-4B-B3,B,OPCO,1,30.32,WD4,4B,WD4_4B,WD,4,B,Mono,0,3,0,0,0,0,0,0
WD4-4B-B4,B,OPCO,1,37.9,WD4,4B,WD4_4B,WD,4,B,Mono,0,3,0,0,0,0,0,0
WD4-4H-H1,H,LUHY,1,444,WD4,4H,WD4_4H,WD,4,H,Mono,0,0,0,0,0,0,0,3
WD4-4H-H2,H,LUHY,1,444,WD4,4H,WD4_4H,WD,4,H,Mono,0,0,0,0,0,0,0,3
WD4-4H-H3,H,LUHY,1,1702,WD4,4H,WD4_4H,WD,4,H,Mono,0,0,0,0,0,0,0,3
WD4-4H-H4,H,LUHY,1,666,WD4,4H,WD4_4H,WD,4,H,Mono,0,0,0,0,0,0,0,3
WD4-4AB-B1,B,OPCO,1,0,WD4,4AB,WD4_4AB,WD,4,AB,Co,2,1,0,0,0,0,0,0
WD4-4AB-B2,B,OPCO,1,0,WD4,4AB,WD4_4AB,WD,4,AB,Co,2,1,0,0,0,0,0,0
WD4-4AH-H1,H,LUHY,1,888,WD4,4AH,WD4_4AH,WD,4,AH,Co,2,0,0,0,0,0,0,1
WD4-4AH-H2,H,LUHY,1,1332,WD4,4AH,WD4_4AH,WD,4,AH,Co,2,0,0,0,0,0,0,1
WD4-4BC-B1,B,OPCO,1,386.58,WD4,4BC,WD4_4BC,WD,4,BC,Co,0,1,2,0,0,0,0,0
WD4-4BC-B2,B,OPCO,1,0,WD4,4BC,WD4_4BC,WD,4,BC,Co,0,1,2,0,0,0,0,0
WD4-4BD-B1,B,OPCO,1,0,WD4,4BD,WD4_4BD,WD,4,BD,Co,0,1,0,2,0,0,0,0
WD4-4BD-B2,B,OPCO,1,0,WD4,4BD,WD4_4BD,WD,4,BD,Co,0,1,0,2,0,0,0,0
WD4-4BE-B1,B,OPCO,1,106.12,WD4,4BE,WD4_4BE,WD,4,BE,Co,0,1,0,0,2,0,0,0
WD4-4BE-B2,B,OPCO,1,0,WD4,4BE,WD4_4BE,WD,4,BE,Co,0,1,0,0,2,0,0,0
WD4-4BF-B1,B,OPCO,1,0,WD4,4BF,WD4_4BF,WD,4,BF,Co,0,1,0,0,0,2,0,0
WD4-4BF-B2,B,OPCO,1,0,WD4,4BF,WD4_4BF,WD,4,BF,Co,0,1,0,0,0,2,0,0
WD4-4BG-B1,B,OPCO,1,22.74,WD4,4BG,WD4_4BG,WD,4,BG,Co,0,1,0,0,0,0,2,0
WD4-4BG-B2,B,OPCO,1,0,WD4,4BG,WD4_4BG,WD,4,BG,Co,0,1,0,0,0,0,2,0
WD4-4BH-B1,B,OPCO,1,0,WD4,4BH,WD4_4BH,WD,4,BH,Co,0,1,0,0,0,0,0,2
WD4-4BH-B2,B,OPCO,1,22.74,WD4,4BH,WD4_4BH,WD,4,BH,Co,0,1,0,0,0,0,0,2
WD4-4BH-H1,H,LUHY,1,1924,WD4,4BH,WD4_4BH,WD,4,BH,Co,0,2,0,0,0,0,0,1
WD4-4BH-H2,H,LUHY,1,1406,WD4,4BH,WD4_4BH,WD,4,BH,Co,0,2,0,0,0,0,0,1
WD4-4CH-H1,H,LUHY,1,1554,WD4,4CH,WD4_4CH,WD,4,CH,Co,0,0,2,0,0,0,0,1
WD4-4CH-H2,H,LUHY,1,2294,WD4,4CH,WD4_4CH,WD,4,CH,Co,0,0,2,0,0,0,0,1
WD4-4DH-H1,H,LUHY,1,3256,WD4,4DH,WD4_4DH,WD,4,DH,Co,0,0,0,2,0,0,0,1
WD4-4DH-H2,H,LUHY,1,3478,WD4,4DH,WD4_4DH,WD,4,DH,Co,0,0,0,2,0,0,0,1
WD4-4EH-H1,H,LUHY,1,0,WD4,4EH,WD4_4EH,WD,4,EH,Co,0,0,0,0,2,0,0,1
WD4-4EH-H2,H,LUHY,1,740,WD4,4EH,WD4_4EH,WD,4,EH,Co,0,0,0,0,2,0,0,1
WD4-4FH-H1,H,LUHY,1,1628,WD4,4FH,WD4_4FH,WD,4,FH,Co,0,0,0,0,0,2,0,1
WD4-4FH-H2,H,LUHY,1,1406,WD4,4FH,WD4_4FH,WD,4,FH,Co,0,0,0,0,0,2,0,1
WD4-4GH-H1,H,LUHY,1,740,WD4,4GH,WD4_4GH,WD,4,GH,Co,0,0,0,0,0,0,2,1
WD4-4GH-H2,H,LUHY,1,1776,WD4,4GH,WD4_4GH,WD,4,GH,Co,0,0,0,0,0,0,2,1
WD4-8B-B1,B,OPCO,1,0,WD4,8B,WD4_8B,WD,8,B,Mono,0,7,0,0,0,0,0,0
WD4-8B-B2,B,OPCO,1,113.7,WD4,8B,WD4_8B,WD,8,B,Mono,0,7,0,0,0,0,0,0
WD4-8B-B3,B,OPCO,1,75.8,WD4,8B,WD4_8B,WD,8,B,Mono,0,7,0,0,0,0,0,0
WD4-8B-B4,B,OPCO,1,0,WD4,8B,WD4_8B,WD,8,B,Mono,0,7,0,0,0,0,0,0
WD4-8B-B5,B,OPCO,1,98.54,WD4,8B,WD4_8B,WD,8,B,Mono,0,7,0,0,0,0,0,0
WD4-8B-B6,B,OPCO,1,0,WD4,8B,WD4_8B,WD,8,B,Mono,0,7,0,0,0,0,0,0
WD4-8B-B7,B,OPCO,1,90.96,WD4,8B,WD4_8B,WD,8,B,Mono,0,7,0,0,0,0,0,0
WD4-8B-B8,B,OPCO,1,60.64,WD4,8B,WD4_8B,WD,8,B,Mono,0,7,0,0,0,0,0,0
WD4-8H-H1,H,LUHY,1,370,WD4,8H,WD4_8H,WD,8,H,Mono,0,0,7,0,0,0,0,0
WD4-8H-H2,H,LUHY,1,518,WD4,8H,WD4_8H,WD,8,H,Mono,0,0,7,0,0,0,0,0
WD4-8H-H3,H,LUHY,1,518,WD4,8H,WD4_8H,WD,8,H,Mono,0,0,7,0,0,0,0,0
WD4-8H-H4,H,LUHY,1,518,WD4,8H,WD4_8H,WD,8,H,Mono,0,0,7,0,0,0,0,0
WD4-8H-H5,H,LUHY,1,740,WD4,8H,WD4_8H,WD,8,H,Mono,0,0,7,0,0,0,0,0
WD4-8H-H6,H,LUHY,1,592,WD4,8H,WD4_8H,WD,8,H,Mono,0,0,7,0,0,0,0,0
WD4-8H-H7,H,LUHY,1,518,WD4,8H,WD4_8H,WD,8,H,Mono,0,0,7,0,0,0,0,0
WD4-8H-H8,H,LUHY,1,0,WD4,8H,WD4_8H,WD,8,H,Mono,0,0,7,0,0,0,0,0
WD4-8AB-B1,B,OPCO,1,0,WD4,8AB,WD4_8AB,WD,8,AB,Co,4,3,0,0,0,0,0,0
WD4-8AB-B2,B,OPCO,1,0,WD4,8AB,WD4_8AB,WD,8,AB,Co,4,3,0,0,0,0,0,0
WD4-8AB-B3,B,OPCO,1,0,WD4,8AB,WD4_8AB,WD,8,AB,Co,4,3,0,0,0,0,0,0
WD4-8AB-B4,B,OPCO,1,0,WD4,8AB,WD4_8AB,WD,8,AB,Co,4,3,0,0,0,0,0,0
WD4-8AH-H1,H,LUHY,1,888,WD4,8AH,WD4_8AH,WD,8,AH,Co,4,0,0,0,0,0,0,3
WD4-8AH-H2,H,LUHY,1,1110,WD4,8AH,WD4_8AH,WD,8,AH,Co,4,0,0,0,0,0,0,3
WD4-8AH-H3,H,LUHY,1,518,WD4,8AH,WD4_8AH,WD,8,AH,Co,4,0,0,0,0,0,0,3
WD4-8AH-H4,H,LUHY,1,1110,WD4,8AH,WD4_8AH,WD,8,AH,Co,4,0,0,0,0,0,0,3
WD4-8BC-B1,B,OPCO,1,219.82,WD4,8BC,WD4_8BC,WD,8,BC,Co,0,3,4,0,0,0,0,0
WD4-8BC-B2,B,OPCO,1,30.32,WD4,8BC,WD4_8BC,WD,8,BC,Co,0,3,4,0,0,0,0,0
WD4-8BC-B3,B,OPCO,1,22.74,WD4,8BC,WD4_8BC,WD,8,BC,Co,0,3,4,0,0,0,0,0
WD4-8BC-B4,B,OPCO,1,0,WD4,8BC,WD4_8BC,WD,8,BC,Co,0,3,4,0,0,0,0,0
WD4-8BD-B1,B,OPCO,1,0,WD4,8BD,WD4_8BD,WD,8,BD,Co,0,3,0,4,0,0,0,0
WD4-8BD-B2,B,OPCO,1,30.32,WD4,8BD,WD4_8BD,WD,8,BD,Co,0,3,0,4,0,0,0,0
WD4-8BD-B3,B,OPCO,1,0,WD4,8BD,WD4_8BD,WD,8,BD,Co,0,3,0,4,0,0,0,0
WD4-8BD-B4,B,OPCO,1,30.32,WD4,8BD,WD4_8BD,WD,8,BD,Co,0,3,0,4,0,0,0,0
WD4-8BE-B1,B,OPCO,1,30.32,WD4,8BE,WD4_8BE,WD,8,BE,Co,0,3,0,0,4,0,0,0
WD4-8BE-B2,B,OPCO,1,0,WD4,8BE,WD4_8BE,WD,8,BE,Co,0,3,0,0,4,0,0,0
WD4-8BE-B3,B,OPCO,1,7.58,WD4,8BE,WD4_8BE,WD,8,BE,Co,0,3,0,0,4,0,0,0
WD4-8BE-B4,B,OPCO,1,0,WD4,8BE,WD4_8BE,WD,8,BE,Co,0,3,0,0,4,0,0,0
WD4-8BF-B1,B,OPCO,1,0,WD4,8BF,WD4_8BF,WD,8,BF,Co,0,3,0,0,0,4,0,0
WD4-8BF-B2,B,OPCO,1,30.32,WD4,8BF,WD4_8BF,WD,8,BF,Co,0,3,0,0,0,4,0,0
WD4-8BF-B3,B,OPCO,1,0,WD4,8BF,WD4_8BF,WD,8,BF,Co,0,3,0,0,0,4,0,0
WD4-8BF-B4,B,OPCO,1,22.74,WD4,8BF,WD4_8BF,WD,8,BF,Co,0,3,0,0,0,4,0,0
WD4-8BG-B1,B,OPCO,1,0,WD4,8BG,WD4_8BG,WD,8,BG,Co,0,3,0,0,0,0,4,0
WD4-8BG-B2,B,OPCO,1,0,WD4,8BG,WD4_8BG,WD,8,BG,Co,0,3,0,0,0,0,4,0
WD4-8BG-B3,B,OPCO,1,30.32,WD4,8BG,WD4_8BG,WD,8,BG,Co,0,3,0,0,0,0,4,0
WD4-8BG-B4,B,OPCO,1,0,WD4,8BG,WD4_8BG,WD,8,BG,Co,0,3,0,0,0,0,4,0
WD4-8BH-B1,B,OPCO,1,0,WD4,8BH,WD4_8BH,WD,8,BH,Co,0,3,0,0,0,0,0,4
WD4-8BH-B2,B,OPCO,1,0,WD4,8BH,WD4_8BH,WD,8,BH,Co,0,3,0,0,0,0,0,4
WD4-8BH-B3,B,OPCO,1,0,WD4,8BH,WD4_8BH,WD,8,BH,Co,0,3,0,0,0,0,0,4
WD4-8BH-B4,B,OPCO,1,22.74,WD4,8BH,WD4_8BH,WD,8,BH,Co,0,3,0,0,0,0,0,4
WD4-8BH-H1,H,LUHY,1,888,WD4,8BH,WD4_8BH,WD,8,BH,Co,0,4,0,0,0,0,0,3
WD4-8BH-H2,H,LUHY,1,518,WD4,8BH,WD4_8BH,WD,8,BH,Co,0,4,0,0,0,0,0,3
WD4-8BH-H3,H,LUHY,1,962,WD4,8BH,WD4_8BH,WD,8,BH,Co,0,4,0,0,0,0,0,3
WD4-8BH-H4,H,LUHY,1,962,WD4,8BH,WD4_8BH,WD,8,BH,Co,0,4,0,0,0,0,0,3
WD4-8CH-H1,H,LUHY,1,518,WD4,8CH,WD4_8CH,WD,8,CH,Co,0,0,4,0,0,0,0,3
WD4-8CH-H2,H,LUHY,1,148,WD4,8CH,WD4_8CH,WD,8,CH,Co,0,0,4,0,0,0,0,3
WD4-8CH-H3,H,LUHY,1,666,WD4,8CH,WD4_8CH,WD,8,CH,Co,0,0,4,0,0,0,0,3
WD4-8CH-H4,H,LUHY,1,888,WD4,8CH,WD4_8CH,WD,8,CH,Co,0,0,4,0,0,0,0,3
WD4-8DH-H1,H,LUHY,1,518,WD4,8DH,WD4_8DH,WD,8,DH,Co,0,0,0,4,0,0,0,3
WD4-8DH-H2,H,LUHY,1,518,WD4,8DH,WD4_8DH,WD,8,DH,Co,0,0,0,4,0,0,0,3
WD4-8DH-H3,H,LUHY,1,666,WD4,8DH,WD4_8DH,WD,8,DH,Co,0,0,0,4,0,0,0,3
WD4-8DH-H4,H,LUHY,1,888,WD4,8DH,WD4_8DH,WD,8,DH,Co,0,0,0,4,0,0,0,3
WD4-8EH-H1,H,LUHY,1,962,WD4,8EH,WD4_8EH,WD,8,EH,Co,0,0,0,0,4,0,0,3
WD4-8EH-H2,H,LUHY,1,1554,WD4,8EH,WD4_8EH,WD,8,EH,Co,0,0,0,0,4,0,0,3
WD4-8EH-H3,H,LUHY,1,666,WD4,8EH,WD4_8EH,WD,8,EH,Co,0,0,0,0,4,0,0,3
WD4-8EH-H4,H,LUHY,1,1036,WD4,8EH,WD4_8EH,WD,8,EH,Co,0,0,0,0,4,0,0,3
WD4-8FH-H1,H,LUHY,1,1480,WD4,8FH,WD4_8FH,WD,8,FH,Co,0,0,0,0,0,4,0,3
WD4-8FH-H2,H,LUHY,1,444,WD4,8FH,WD4_8FH,WD,8,FH,Co,0,0,0,0,0,4,0,3
WD4-8FH-H3,H,LUHY,1,1110,WD4,8FH,WD4_8FH,WD,8,FH,Co,0,0,0,0,0,4,0,3
WD4-8FH-H4,H,LUHY,1,1776,WD4,8FH,WD4_8FH,WD,8,FH,Co,0,0,0,0,0,4,0,3
WD4-8GH-H1,H,LUHY,1,888,WD4,8GH,WD4_8GH,WD,8,GH,Co,0,0,0,0,0,0,4,3
WD4-8GH-H2,H,LUHY,1,888,WD4,8GH,WD4_8GH,WD,8,GH,Co,0,0,0,0,0,0,4,3
WD4-8GH-H3,H,LUHY,1,962,WD4,8GH,WD4_8GH,WD,8,GH,Co,0,0,0,0,0,0,4,3
WD4-8GH-H4,H,LUHY,1,888,WD4,8GH,WD4_8GH,WD,8,GH,Co,0,0,0,0,0,0,4,3
DW3-2B-B1,B,OPCO,1,68.22,DW3,2B,DW3_2B,DW,2,B,Mono,0,1,0,0,0,0,0,0
DW3-2B-B2,B,OPCO,1,379,DW3,2B,DW3_2B,DW,2,B,Mono,0,1,0,0,0,0,0,0
DW3-2H-H1,H,LUHY,1,2812,DW3,2H,DW3_2H,DW,2,H,Mono,0,0,0,0,0,0,0,1
DW3-2H-H2,H,LUHY,1,2294,DW3,2H,DW3_2H,DW,2,H,Mono,0,0,0,0,0,0,0,1
DW3-2AB-B,B,OPCO,1,0,DW3,2AB,DW3_2AB,DW,2,AB,Co,1,0,0,0,0,0,0,0
DW3-2AH-H,H,LUHY,1,1998,DW3,2AH,DW3_2AH,DW,2,AH,Co,1,0,0,0,0,0,0,0
DW3-2BC-B,B,OPCO,1,197.08,DW3,2BC,DW3_2BC,DW,2,BC,Co,0,0,1,0,0,0,0,0
DW3-2BD-B,B,OPCO,1,0,DW3,2BD,DW3_2BD,DW,2,BD,Co,0,0,0,1,0,0,0,0
DW3-2BE-B,B,OPCO,1,159.18,DW3,2BE,DW3_2BE,DW,2,BE,Co,0,0,0,0,1,0,0,0
DW3-2BF-B,B,OPCO,1,136.44,DW3,2BF,DW3_2BF,DW,2,BF,Co,0,0,0,0,0,1,0,0
DW3-2BG-B,B,OPCO,1,0,DW3,2BG,DW3_2BG,DW,2,BG,Co,0,0,0,0,0,0,1,0
DW3-2BH-B,B,OPCO,1,0,DW3,2BH,DW3_2BH,DW,2,BH,Co,0,0,0,0,0,0,0,1
DW3-2BH-H,H,LUHY,1,2442,DW3,2BH,DW3_2BH,DW,2,BH,Co,0,1,0,0,0,0,0,0
DW3-2CH-H,H,LUHY,1,1184,DW3,2CH,DW3_2CH,DW,2,CH,Co,0,0,1,0,0,0,0,0
DW3-2DH-H,H,LUHY,1,2368,DW3,2DH,DW3_2DH,DW,2,DH,Co,0,0,0,1,0,0,0,0
DW3-2EH-H,H,LUHY,1,2442,DW3,2EH,DW3_2EH,DW,2,EH,Co,0,0,0,0,1,0,0,0
DW3-2FH-H,H,LUHY,1,518,DW3,2FH,DW3_2FH,DW,2,FH,Co,0,0,0,0,0,1,0,0
DW3-2GH-H,H,LUHY,1,2146,DW3,2GH,DW3_2GH,DW,2,GH,Co,0,0,0,0,0,0,1,0
DW3-4B-B1,B,OPCO,1,90.96,DW3,4B,DW3_4B,DW,4,B,Mono,0,3,0,0,0,0,0,0
DW3-4B-B2,B,OPCO,1,121.28,DW3,4B,DW3_4B,DW,4,B,Mono,0,3,0,0,0,0,0,0
DW3-4B-B3,B,OPCO,1,68.22,DW3,4B,DW3_4B,DW,4,B,Mono,0,3,0,0,0,0,0,0
DW3-4B-B4,B,OPCO,1,144.02,DW3,4B,DW3_4B,DW,4,B,Mono,0,3,0,0,0,0,0,0
DW3-4H-H1,H,LUHY,1,1332,DW3,4H,DW3_4H,DW,4,H,Mono,0,0,0,0,0,0,0,3
DW3-4H-H2,H,LUHY,1,1998,DW3,4H,DW3_4H,DW,4,H,Mono,0,0,0,0,0,0,0,3
DW3-4H-H3,H,LUHY,1,1258,DW3,4H,DW3_4H,DW,4,H,Mono,0,0,0,0,0,0,0,3
DW3-4H-H4,H,LUHY,1,2146,DW3,4H,DW3_4H,DW,4,H,Mono,0,0,0,0,0,0,0,3
DW3-4AB-B1,B,OPCO,1,0,DW3,4AB,DW3_4AB,DW,4,AB,Co,2,1,0,0,0,0,0,0
DW3-4AB-B2,B,OPCO,1,0,DW3,4AB,DW3_4AB,DW,4,AB,Co,2,1,0,0,0,0,0,0
DW3-4AH-H1,H,LUHY,1,1480,DW3,4AH,DW3_4AH,DW,4,AH,Co,2,0,0,0,0,0,0,1
DW3-4AH-H2,H,LUHY,1,1110,DW3,4AH,DW3_4AH,DW,4,AH,Co,2,0,0,0,0,0,0,1
DW3-4BC-B1,B,OPCO,1,0,DW3,4BC,DW3_4BC,DW,4,BC,Co,0,1,2,0,0,0,0,0
DW3-4BC-B2,B,OPCO,1,0,DW3,4BC,DW3_4BC,DW,4,BC,Co,0,1,2,0,0,0,0,0
DW3-4BD-B1,B,OPCO,1,0,DW3,4BD,DW3_4BD,DW,4,BD,Co,0,1,0,2,0,0,0,0
DW3-4BD-B2,B,OPCO,1,0,DW3,4BD,DW3_4BD,DW,4,BD,Co,0,1,0,2,0,0,0,0
DW3-4BE-B1,B,OPCO,1,227.4,DW3,4BE,DW3_4BE,DW,4,BE,Co,0,1,0,0,2,0,0,0
DW3-4BE-B2,B,OPCO,1,90.96,DW3,4BE,DW3_4BE,DW,4,BE,Co,0,1,0,0,2,0,0,0
DW3-4BF-B1,B,OPCO,1,0,DW3,4BF,DW3_4BF,DW,4,BF,Co,0,1,0,0,0,2,0,0
DW3-4BF-B2,B,OPCO,1,22.74,DW3,4BF,DW3_4BF,DW,4,BF,Co,0,1,0,0,0,2,0,0
DW3-4BG-B1,B,OPCO,1,37.9,DW3,4BG,DW3_4BG,DW,4,BG,Co,0,1,0,0,0,0,2,0
DW3-4BG-B2,B,OPCO,1,0,DW3,4BG,DW3_4BG,DW,4,BG,Co,0,1,0,0,0,0,2,0
DW3-4BH-B1,B,OPCO,1,0,DW3,4BH,DW3_4BH,DW,4,BH,Co,0,1,0,0,0,0,0,2
DW3-4BH-B2,B,OPCO,1,0,DW3,4BH,DW3_4BH,DW,4,BH,Co,0,1,0,0,0,0,0,2
DW3-4BH-H1,H,LUHY,1,814,DW3,4BH,DW3_4BH,DW,4,BH,Co,0,2,0,0,0,0,0,1
DW3-4BH-H2,H,LUHY,1,1184,DW3,4BH,DW3_4BH,DW,4,BH,Co,0,2,0,0,0,0,0,1
DW3-4CH-H1,H,LUHY,1,1850,DW3,4CH,DW3_4CH,DW,4,CH,Co,0,0,2,0,0,0,0,1
DW3-4CH-H2,H,LUHY,1,1924,DW3,4CH,DW3_4CH,DW,4,CH,Co,0,0,2,0,0,0,0,1
DW3-4DH-H1,H,LUHY,1,0,DW3,4DH,DW3_4DH,DW,4,DH,Co,0,0,0,2,0,0,0,1
DW3-4DH-H2,H,LUHY,1,0,DW3,4DH,DW3_4DH,DW,4,DH,Co,0,0,0,2,0,0,0,1
DW3-4EH-H1,H,LUHY,1,1628,DW3,4EH,DW3_4EH,DW,4,EH,Co,0,0,0,0,2,0,0,1
DW3-4EH-H2,H,LUHY,1,1924,DW3,4EH,DW3_4EH,DW,4,EH,Co,0,0,0,0,2,0,0,1
DW3-4FH-H1,H,LUHY,1,370,DW3,4FH,DW3_4FH,DW,4,FH,Co,0,0,0,0,0,2,0,1
DW3-4FH-H2,H,LUHY,1,1406,DW3,4FH,DW3_4FH,DW,4,FH,Co,0,0,0,0,0,2,0,1
DW3-4GH-H1,H,LUHY,1,1480,DW3,4GH,DW3_4GH,DW,4,GH,Co,0,0,0,0,0,0,2,1
DW3-4GH-H2,H,LUHY,1,3182,DW3,4GH,DW3_4GH,DW,4,GH,Co,0,0,0,0,0,0,2,1
DW3-8B-B1,B,OPCO,1,144.02,DW3,8B,DW3_8B,DW,8,B,Mono,0,7,0,0,0,0,0,0
DW3-8B-B2,B,OPCO,1,0,DW3,8B,DW3_8B,DW,8,B,Mono,0,7,0,0,0,0,0,0
DW3-8B-B3,B,OPCO,1,30.32,DW3,8B,DW3_8B,DW,8,B,Mono,0,7,0,0,0,0,0,0
DW3-8B-B4,B,OPCO,1,68.22,DW3,8B,DW3_8B,DW,8,B,Mono,0,7,0,0,0,0,0,0
DW3-8B-B5,B,OPCO,1,30.32,DW3,8B,DW3_8B,DW,8,B,Mono,0,7,0,0,0,0,0,0
DW3-8B-B6,B,OPCO,1,0,DW3,8B,DW3_8B,DW,8,B,Mono,0,7,0,0,0,0,0,0
DW3-8B-B7,B,OPCO,1,75.8,DW3,8B,DW3_8B,DW,8,B,Mono,0,7,0,0,0,0,0,0
DW3-8B-B8,B,OPCO,1,30.32,DW3,8B,DW3_8B,DW,8,B,Mono,0,7,0,0,0,0,0,0
DW3-8H-H1,H,LUHY,1,296,DW3,8H,DW3_8H,DW,8,H,Mono,0,0,7,0,0,0,0,0
DW3-8H-H2,H,LUHY,1,222,DW3,8H,DW3_8H,DW,8,H,Mono,0,0,7,0,0,0,0,0
DW3-8H-H3,H,LUHY,1,518,DW3,8H,DW3_8H,DW,8,H,Mono,0,0,7,0,0,0,0,0
DW3-8H-H4,H,LUHY,1,370,DW3,8H,DW3_8H,DW,8,H,Mono,0,0,7,0,0,0,0,0
DW3-8H-H5,H,LUHY,1,296,DW3,8H,DW3_8H,DW,8,H,Mono,0,0,7,0,0,0,0,0
DW3-8H-H6,H,LUHY,1,444,DW3,8H,DW3_8H,DW,8,H,Mono,0,0,7,0,0,0,0,0