No,Sp,Species,Survival,num_seeds,Block,Pot,Pot,Raintype,Density,Composition,Culture,n_BIPI,n_OPCO,n_PHAN,n_DAAE,n_POHY,n_PRCL,n_AGCO,n_LUHY
WW3-2C-C1,C,PHAN,1,1312.5,WW3,2C,WW3_2C,WW,2,C,Mono,0,0,1,0,0,0,0,0
WW3-2C-C2,C,PHAN,1,612.5,WW3,2C,WW3_2C,WW,2,C,Mono,0,0,1,0,0,0,0,0
WW3-2D-D1,D,DAAE,1,344,WW3,2D,WW3_2D,WW,2,D,Mono,0,0,0,1,0,0,0,0
WW3-2D-D2,D,DAAE,0,0,WW3,2D,WW3_2D,WW,2,D,Mono,0,0,0,1,0,0,0,0
WW3-2AC-C,C,PHAN,1,262.5,WW3,2AC,WW3_2AC,WW,2,AC,Co,1,0,0,0,0,0,0,0
WW3-2AD-D,D,DAAE,1,387,WW3,2AD,WW3_2AD,WW,2,AD,Co,1,0,0,0,0,0,0,0
WW3-2BC-C,C,PHAN,1,1925,WW3,2BC,WW3_2BC,WW,2,BC,Co,0,1,0,0,0,0,0,0
WW3-2BD-D,D,DAAE,1,473,WW3,2BD,WW3_2BD,WW,2,BD,Co,0,1,0,0,0,0,0,0
WW3-2CD-C,C,PHAN,1,0,WW3,2CD,WW3_2CD,WW,2,CD,Co,0,0,0,1,0,0,0,0
WW3-2CD-D,D,DAAE,1,129,WW3,2CD,WW3_2CD,WW,2,CD,Co,0,0,1,0,0,0,0,0
WW3-2CE-C,C,PHAN,1,787.5,WW3,2CE,WW3_2CE,WW,2,CE,Co,0,0,0,0,1,0,0,0
WW3-2CF-C,C,PHAN,1,962.5,WW3,2CF,WW3_2CF,WW,2,CF,Co,0,0,0,0,0,1,0,0
WW3-2CG-C,C,PHAN,0,0,WW3,2CG,WW3_2CG,WW,2,CG,Co,0,0,0,0,0,0,1,0
WW3-2CH-C,C,PHAN,1,87.5,WW3,2CH,WW3_2CH,WW,2,CH,Co,0,0,0,0,0,0,0,1
WW3-2DE-D,D,DAAE,1,473,WW3,2DE,WW3_2DE,WW,2,DE,Co,0,0,0,0,1,0,0,0
WW3-2DF-D,D,DAAE,1,258,WW3,2DF,WW3_2DF,WW,2,DF,Co,0,0,0,0,0,1,0,0
WW3-2DG-D,D,DAAE,1,129,WW3,2DG,WW3_2DG,WW,2,DG,Co,0,0,0,0,0,0,1,0
WW3-2DH-D,D,DAAE,1,559,WW3,2DH,WW3_2DH,WW,2,DH,Co,0,0,0,0,0,0,0,1
WW3-4C-C1,C,PHAN,1,875,WW3,4C,WW3_4C,WW,4,C,Mono,0,0,3,0,0,0,0,0
WW3-4C-C2,C,PHAN,1,1312.5,WW3,4C,WW3_4C,WW,4,C,Mono,0,0,3,0,0,0,0,0
WW3-4C-C3,C,PHAN,1,0,WW3,4C,WW3_4C,WW,4,C,Mono,0,0,3,0,0,0,0,0
WW3-4C-C4,C,PHAN,1,437.5,WW3,4C,WW3_4C,WW,4,C,Mono,0,0,3,0,0,0,0,0
WW3-4D-D1,D,DAAE,1,129,WW3,4D,WW3_4D,WW,4,D,Mono,0,0,0,3,0,0,0,0
WW3-4D-D2,D,DAAE,1,86,WW3,4D,WW3_4D,WW,4,D,Mono,0,0,0,3,0,0,0,0
WW3-4D-D3,D,DAAE,1,172,WW3,4D,WW3_4D,WW,4,D,Mono,0,0,0,3,0,0,0,0
WW3-4D-D4,D,DAAE,1,172,WW3,4D,WW3_4D,WW,4,D,Mono,0,0,0,3,0,0,0,0
WW3-4AC-C1,C,PHAN,1,350,WW3,4AC,WW3_4AC,WW,4,AC,Co,2,0,1,0,0,0,0,0
WW3-4AC-C2,C,PHAN,1,175,WW3,4AC,WW3_4AC,WW,4,AC,Co,2,0,1,0,0,0,0,0
WW3-4AD-D1,D,DAAE,1,86,WW3,4AD,WW3_4AD,WW,4,AD,Co,2,0,0,1,0,0,0,0
WW3-4AD-D2,D,DAAE,1,344,WW3,4AD,WW3_4AD,WW,4,AD,Co,2,0,0,1,0,0,0,0
WW3-4BC-C1,C,PHAN,1,525,WW3,4BC,WW3_4BC,WW,4,BC,Co,0,2,1,0,0,0,0,0
WW3-4BC-C2,C,PHAN,1,787.5,WW3,4BC,WW3_4BC,WW,4,BC,Co,0,2,1,0,0,0,0,0
WW3-4BD-D1,D,DAAE,1,215,WW3,4BD,WW3_4BD,WW,4,BD,Co,0,2,0,1,0,0,0,0
WW3-4BD-D2,D,DAAE,1,258,WW3,4BD,WW3_4BD,WW,4,BD,Co,0,2,0,1,0,0,0,0
WW3-4CD-C1,C,PHAN,1,700,WW3,4CD,WW3_4CD,WW,4,CD,Co,0,0,1,2,0,0,0,0
WW3-4CD-C2,C,PHAN,1,612.5,WW3,4CD,WW3_4CD,WW,4,CD,Co,0,0,1,2,0,0,0,0
WW3-4CD-D1,D,DAAE,1,172,WW3,4CD,WW3_4CD,WW,4,CD,Co,0,0,2,1,0,0,0,0
WW3-4CD-D2,D,DAAE,1,172,WW3,4CD,WW3_4CD,WW,4,CD,Co,0,0,2,1,0,0,0,0
WW3-4CE-C1,C,PHAN,1,350,WW3,4CE,WW3_4CE,WW,4,CE,Co,0,0,1,0,2,0,0,0
WW3-4CE-C2,C,PHAN,1,962.5,WW3,4CE,WW3_4CE,WW,4,CE,Co,0,0,1,0,2,0,0,0
WW3-4CF-C1,C,PHAN,1,1225,WW3,4CF,WW3_4CF,WW,4,CF,Co,0,0,1,0,0,2,0,0
WW3-4CF-C2,C,PHAN,1,1137.5,WW3,4CF,WW3_4CF,WW,4,CF,Co,0,0,1,0,0,2,0,0
WW3-4CG-C1,C,PHAN,1,1050,WW3,4CG,WW3_4CG,WW,4,CG,Co,0,0,1,0,0,0,2,0
WW3-4CG-C2,C,PHAN,1,1050,WW3,4CG,WW3_4CG,WW,4,CG,Co,0,0,1,0,0,0,2,0
WW3-4CH-C1,C,PHAN,1,262.5,WW3,4CH,WW3_4CH,WW,4,CH,Co,0,0,1,0,0,0,0,2
WW3-4CH-C2,C,PHAN,1,612.5,WW3,4CH,WW3_4CH,WW,4,CH,Co,0,0,1,0,0,0,0,2
WW3-4DE-D1,D,DAAE,1,86,WW3,4DE,WW3_4DE,WW,4,DE,Co,0,0,0,1,2,0,0,0
WW3-4DE-D2,D,DAAE,1,430,WW3,4DE,WW3_4DE,WW,4,DE,Co,0,0,0,1,2,0,0,0
WW3-4DF-D1,D,DAAE,1,86,WW3,4DF,WW3_4DF,WW,4,DF,Co,0,0,0,1,0,2,0,0
WW3-4DF-D2,D,DAAE,1,344,WW3,4DF,WW3_4DF,WW,4,DF,Co,0,0,0,1,0,2,0,0
WW3-4DG-D1,D,DAAE,1,129,WW3,4DG,WW3_4DG,WW,4,DG,Co,0,0,0,1,0,0,2,0
WW3-4DG-D2,D,DAAE,1,172,WW3,4DG,WW3_4DG,WW,4,DG,Co,0,0,0,1,0,0,2,0
WW3-4DH-D1,D,DAAE,1,172,WW3,4DH,WW3_4DH,WW,4,DH,Co,0,0,0,1,0,0,0,2
WW3-4DH-D2,D,DAAE,1,172,WW3,4DH,WW3_4DH,WW,4,DH,Co,0,0,0,1,0,0,0,2
WW3-8C-C1,C,PHAN,1,87.5,WW3,8C,WW3_8C,WW,8,C,Mono,0,0,7,0,0,0,0,0
WW3-8C-C2,C,PHAN,1,87.5,WW3,8C,WW3_8C,WW,8,C,Mono,0,0,7,0,0,0,0,0
WW3-8C-C3,C,PHAN,1,87.5,WW3,8C,WW3_8C,WW,8,C,Mono,0,0,7,0,0,0,0,0
WW3-8C-C4,C,PHAN,1,700,WW3,8C,WW3_8C,WW,8,C,Mono,0,0,7,0,0,0,0,0
WW3-8C-C5,C,PHAN,1,262.5,WW3,8C,WW3_8C,WW,8,C,Mono,0,0,7,0,0,0,0,0
WW3-8C-C6,C,PHAN,1,612.5,WW3,8C,WW3_8C,WW,8,C,Mono,0,0,7,0,0,0,0,0
WW3-8C-C7,C,PHAN,1,262.5,WW3,8C,WW3_8C,WW,8,C,Mono,0,0,7,0,0,0,0,0
WW3-8C-C8,C,PHAN,1,87.5,WW3,8C,WW3_8C,WW,8,C,Mono,0,0,7,0,0,0,0,0
WW3-8D-D1,D,DAAE,1,129,WW3,8D,WW3_8D,WW,8,D,Mono,0,0,0,7,0,0,0,0
WW3-8D-D2,D,DAAE,1,43,WW3,8D,WW3_8D,WW,8,D,Mono,0,0,0,7,0,0,0,0
WW3-8D-D3,D,DAAE,1,129,WW3,8D,WW3_8D,WW,8,D,Mono,0,0,0,7,0,0,0,0
WW3-8D-D4,D,DAAE,1,86,WW3,8D,WW3_8D,WW,8,D,Mono,0,0,0,7,0,0,0,0
WW3-8D-D5,D,DAAE,1,86,WW3,8D,WW3_8D,WW,8,D,Mono,0,0,0,7,0,0,0,0
WW3-8D-D6,D,DAAE,1,86,WW3,8D,WW3_8D,WW,8,D,Mono,0,0,0,7,0,0,0,0
WW3-8D-D7,D,DAAE,0,0,WW3,8D,WW3_8D,WW,8,D,Mono,0,0,0,7,0,0,0,0
WW3-8D-D8,D,DAAE,1,86,WW3,8D,WW3_8D,WW,8,D,Mono,0,0,0,7,0,0,0,0
WW3-8AC-C1,C,PHAN,1,0,WW3,8AC,WW3_8AC,WW,8,AC,Co,4,0,3,0,0,0,0,0
WW3-8AC-C2,C,PHAN,1,0,WW3,8AC,WW3_8AC,WW,8,AC,Co,4,0,3,0,0,0,0,0
WW3-8AC-C3,C,PHAN,0,0,WW3,8AC,WW3_8AC,WW,8,AC,Co,4,0,3,0,0,0,0,0
WW3-8AC-C4,C,PHAN,0,0,WW3,8AC,WW3_8AC,WW,8,AC,Co,4,0,3,0,0,0,0,0
WW3-8AD-D1,D,DAAE,1,172,WW3,8AD,WW3_8AD,WW,8,AD,Co,4,0,0,3,0,0,0,0
WW3-8AD-D2,D,DAAE,1,172,WW3,8AD,WW3_8AD,WW,8,AD,Co,4,0,0,3,0,0,0,0
WW3-8AD-D3,D,DAAE,1,172,WW3,8AD,WW3_8AD,WW,8,AD,Co,4,0,0,3,0,0,0,0
WW3-8AD-D4,D,DAAE,1,129,WW3,8AD,WW3_8AD,WW,8,AD,Co,4,0,0,3,0,0,0,0
WW3-8BC-C1,C,PHAN,1,175,WW3,8BC,WW3_8BC,WW,8,BC,Co,0,4,3,0,0,0,0,0
WW3-8BC-C2,C,PHAN,1,175,WW3,8BC,WW3_8BC,WW,8,BC,Co,0,4,3,0,0,0,0,0
WW3-8BC-C3,C,PHAN,1,612.5,WW3,8BC,WW3_8BC,WW,8,BC,Co,0,4,3,0,0,0,0,0
WW3-8BC-C4,C,PHAN,1,525,WW3,8BC,WW3_8BC,WW,8,BC,Co,0,4,3,0,0,0,0,0
WW3-8BD-D1,D,DAAE,1,129,WW3,8BD,WW3_8BD,WW,8,BD,Co,0,4,0,3,0,0,0,0
WW3-8BD-D2,D,DAAE,1,172,WW3,8BD,WW3_8BD,WW,8,BD,Co,0,4,0,3,0,0,0,0
WW3-8BD-D3,D,DAAE,1,215,WW3,8BD,WW3_8BD,WW,8,BD,Co,0,4,0,3,0,0,0,0
WW3-8BD-D4,D,DAAE,1,215,WW3,8BD,WW3_8BD,WW,8,BD,Co,0,4,0,3,0,0,0,0
WW3-8CD-C1,C,PHAN,1,0,WW3,8CD,WW3_8CD,WW,8,CD,Co,0,0,3,4,0,0,0,0
WW3-8CD-C2,C,PHAN,1,87.5,WW3,8CD,WW3_8CD,WW,8,CD,Co,0,0,3,4,0,0,0,0
WW3-8CD-C3,C,PHAN,1,350,WW3,8CD,WW3_8CD,WW,8,CD,Co,0,0,3,4,0,0,0,0
WW3-8CD-C4,C,PHAN,1,262.5,WW3,8CD,WW3_8CD,WW,8,CD,Co,0,0,3,4,0,0,0,0
WW3-8CD-D1,D,DAAE,1,86,WW3,8CD,WW3_8CD,WW,8,CD,Co,0,0,4,3,0,0,0,0
WW3-8CD-D2,D,DAAE,1,301,WW3,8CD,WW3_8CD,WW,8,CD,Co,0,0,4,3,0,0,0,0
WW3-8CD-D3,D,DAAE,0,0,WW3,8CD,WW3_8CD,WW,8,CD,Co,0,0,4,3,0,0,0,0
WW3-8CD-D4,D,DAAE,0,0,WW3,8CD,WW3_8CD,WW,8,CD,Co,0,0,4,3,0,0,0,0
WW3-8CE-C1,C,PHAN,1,87.5,WW3,8CE,WW3_8CE,WW,8,CE,Co,0,0,3,0,4,0,0,0
WW3-8CE-C2,C,PHAN,1,962.5,WW3,8CE,WW3_8CE,WW,8,CE,Co,0,0,3,0,4,0,0,0
WW3-8CE-C3,C,PHAN,1,612.5,WW3,8CE,WW3_8CE,WW,8,CE,Co,0,0,3,0,4,0,0,0
WW3-8CE-C4,C,PHAN,1,525,WW3,8CE,WW3_8CE,WW,8,CE,Co,0,0,3,0,4,0,0,0
WW3-8CF-C1,C,PHAN,1,0,WW3,8CF,WW3_8CF,WW,8,CF,Co,0,0,3,0,0,4,0,0
WW3-8CF-C2,C,PHAN,1,0,WW3,8CF,WW3_8CF,WW,8,CF,Co,0,0,3,0,0,4,0,0
WW3-8CF-C3,C,PHAN,1,0,WW3,8CF,WW3_8CF,WW,8,CF,Co,0,0,3,0,0,4,0,0
WW3-8CF-C4,C,PHAN,1,0,WW3,8CF,WW3_8CF,WW,8,CF,Co,0,0,3,0,0,4,0,0
WW3-8CG-C1,C,PHAN,1,262.5,WW3,8CG,WW3_8CG,WW,8,CG,Co,0,0,3,0,0,0,4,0
WW3-8CG-C2,C,PHAN,1,350,WW3,8CG,WW3_8CG,WW,8,CG,Co,0,0,3,0,0,0,4,0
WW3-8CG-C3,C,PHAN,1,437.5,WW3,8CG,WW3_8CG,WW,8,CG,Co,0,0,3,0,0,0,4,0
WW3-8CG-C4,C,PHAN,0,0,WW3,8CG,WW3_8CG,WW,8,CG,Co,0,0,3,0,0,0,4,0
WW3-8CH-C1,C,PHAN,1,0,WW3,8CH,WW3_8CH,WW,8,CH,Co,0,0,3,0,0,0,0,4
WW3-8CH-C2,C,PHAN,1,875,WW3,8CH,WW3_8CH,WW,8,CH,Co,0,0,3,0,0,0,0,4
WW3-8CH-C3,C,PHAN,1,175,WW3,8CH,WW3_8CH,WW,8,CH,Co,0,0,3,0,0,0,0,4
WW3-8CH-C4,C,PHAN,1,350,WW3,8CH,WW3_8CH,WW,8,CH,Co,0,0,3,0,0,0,0,4
WW3-8DE-D1,D,DAAE,1,129,WW3,8DE,WW3_8DE,WW,8,DE,Co,0,0,0,3,4,0,0,0
WW3-8DE-D2,D,DAAE,1,258,WW3,8DE,WW3_8DE,WW,8,DE,Co,0,0,0,3,4,0,0,0
WW3-8DE-D3,D,DAAE,1,301,WW3,8DE,WW3_8DE,WW,8,DE,Co,0,0,0,3,4,0,0,0
WW3-8DE-D4,D,DAAE,0,0,WW3,8DE,WW3_8DE,WW,8,DE,Co,0,0,0,3,4,0,0,0
WW3-8DF-D1,D,DAAE,1,129,WW3,8DF,WW3_8DF,WW,8,DF,Co,0,0,0,3,0,4,0,0
WW3-8DF-D2,D,DAAE,0,0,WW3,8DF,WW3_8DF,WW,8,DF,Co,0,0,0,3,0,4,0,0
WW3-8DF-D3,D,DAAE,1,215,WW3,8DF,WW3_8DF,WW,8,DF,Co,0,0,0,3,0,4,0,0
WW3-8DF-D4,D,DAAE,1,86,WW3,8DF,WW3_8DF,WW,8,DF,Co,0,0,0,3,0,4,0,0
WW3-8DG-D1,D,DAAE,1,172,WW3,8DG,WW3_8DG,WW,8,DG,Co,0,0,0,3,0,0,4,0
WW3-8DG-D2,D,DAAE,0,0,WW3,8DG,WW3_8DG,WW,8,DG,Co,0,0,0,3,0,0,4,0
WW3-8DG-D3,D,DAAE,0,0,WW3,8DG,WW3_8DG,WW,8,DG,Co,0,0,0,3,0,0,4,0
WW3-8DG-D4,D,DAAE,0,0,WW3,8DG,WW3_8DG,WW,8,DG,Co,0,0,0,3,0,0,4,0
WW3-8DH-D1,D,DAAE,1,129,WW3,8DH,WW3_8DH,WW,8,DH,Co,0,0,0,3,0,0,0,4
WW3-8DH-D2,D,DAAE,1,172,WW3,8DH,WW3_8DH,WW,8,DH,Co,0,0,0,3,0,0,0,4
WW3-8DH-D3,D,DAAE,1,172,WW3,8DH,WW3_8DH,WW,8,DH,Co,0,0,0,3,0,0,0,4
WW3-8DH-D4,D,DAAE,0,0,WW3,8DH,WW3_8DH,WW,8,DH,Co,0,0,0,3,0,0,0,4
WW4-2C-C1,C,PHAN,1,612.5,WW4,2C,WW4_2C,WW,2,C,Mono,0,0,1,0,0,0,0,0
WW4-2C-C2,C,PHAN,1,1575,WW4,2C,WW4_2C,WW,2,C,Mono,0,0,1,0,0,0,0,0
WW4-2D-D1,D,DAAE,1,215,WW4,2D,WW4_2D,WW,2,D,Mono,0,0,0,1,0,0,0,0
WW4-2D-D2,D,DAAE,1,344,WW4,2D,WW4_2D,WW,2,D,Mono,0,0,0,1,0,0,0,0
WW4-2AC-C,C,PHAN,1,612.5,WW4,2AC,WW4_2AC,WW,2,AC,Co,1,0,0,0,0,0,0,0
WW4-2AD-D,D,DAAE,1,602,WW4,2AD,WW4_2AD,WW,2,AD,Co,1,0,0,0,0,0,0,0
WW4-2BC-C,C,PHAN,1,1312.5,WW4,2BC,WW4_2BC,WW,2,BC,Co,0,1,0,0,0,0,0,0
WW4-2BD-D,D,DAAE,1,645,WW4,2BD,WW4_2BD,WW,2,BD,Co,0,1,0,0,0,0,0,0
WW4-2CD-C,C,PHAN,0,0,WW4,2CD,WW4_2CD,WW,2,CD,Co,0,0,0,1,0,0,0,0
WW4-2CD-D,D,DAAE,1,473,WW4,2CD,WW4_2CD,WW,2,CD,Co,0,0,1,0,0,0,0,0
WW4-2CE-C,C,PHAN,0,0,WW4,2CE,WW4_2CE,WW,2,CE,Co,0,0,0,0,1,0,0,0
WW4-2CF-C,C,PHAN,1,1400,WW4,2CF,WW4_2CF,WW,2,CF,Co,0,0,0,0,0,1,0,0
WW4-2CG-C,C,PHAN,1,875,WW4,2CG,WW4_2CG,WW,2,CG,Co,0,0,0,0,0,0,1,0
WW4-2CH-C,C,PHAN,1,350,WW4,2CH,WW4_2CH,WW,2,CH,Co,0,0,0,0,0,0,0,1
WW4-2DE-D,D,DAAE,1,344,WW4,2DE,WW4_2DE,WW,2,DE,Co,0,0,0,0,1,0,0,0
WW4-2DF-D,D,DAAE,1,258,WW4,2DF,WW4_2DF,WW,2,DF,Co,0,0,0,0,0,1,0,0
WW4-2DG-D,D,DAAE,1,430,WW4,2DG,WW4_2DG,WW,2,DG,Co,0,0,0,0,0,0,1,0
WW4-2DH-D,D,DAAE,1,516,WW4,2DH,WW4_2DH,WW,2,DH,Co,0,0,0,0,0,0,0,1
WW4-4C-C1,C,PHAN,1,350,WW4,4C,WW4_4C,WW,4,C,Mono,0,0,3,0,0,0,0,0
WW4-4C-C2,C,PHAN,1,437.5,WW4,4C,WW4_4C,WW,4,C,Mono,0,0,3,0,0,0,0,0
WW4-4C-C3,C,PHAN,1,1400,WW4,4C,WW4_4C,WW,4,C,Mono,0,0,3,0,0,0,0,0
WW4-4C-C4,C,PHAN,1,787.5,WW4,4C,WW4_4C,WW,4,C,Mono,0,0,3,0,0,0,0,0
WW4-8D2-D1,D,DAAE,1,129,WW4,8D2,WW4_8D2,WW,8,D,Mono,0,0,0,7,0,0,0,0
WW4-8D2-D2,D,DAAE,1,172,WW4,8D2,WW4_8D2,WW,8,D,Mono,0,0,0,7,0,0,0,0
WW4-8D2-D3,D,DAAE,1,172,WW4,8D2,WW4_8D2,WW,8,D,Mono,0,0,0,7,0,0,0,0
WW4-8D2-D4,D,DAAE,1,172,WW4,8D2,WW4_8D2,WW,8,D,Mono,0,0,0,7,0,0,0,0
WW4-8D2-D5,D,DAAE,1,129,WW4,8D2,WW4_8D2,WW,8,D,Mono,0,0,0,7,0,0,0,0
WW4-8D2-D6,D,DAAE,1,129,WW4,8D2,WW4_8D2,WW,8,D,Mono,0,0,0,7,0,0,0,0
WW4-8D2-D7,D,DAAE,1,172,WW4,8D2,WW4_8D2,WW,8,D,Mono,0,0,0,7,0,0,0,0
WW4-8D2-D8,D,DAAE,1,129,WW4,8D2,WW4_8D2,WW,8,D,Mono,0,0,0,7,0,0,0,0
WW4-4AC-C1,C,PHAN,1,787.5,WW4,4AC,WW4_4AC,WW,4,AC,Co,2,0,1,0,0,0,0,0
WW4-4AC-C2,C,PHAN,1,175,WW4,4AC,WW4_4AC,WW,4,AC,Co,2,0,1,0,0,0,0,0
WW4-4AD-D1,D,DAAE,1,258,WW4,4AD,WW4_4AD,WW,4,AD,Co,2,0,0,1,0,0,0,0
WW4-4AD-D2,D,DAAE,1,301,WW4,4AD,WW4_4AD,WW,4,AD,Co,2,0,0,1,0,0,0,0
WW4-4BC-C1,C,PHAN,1,612.5,WW4,4BC,WW4_4BC,WW,4,BC,Co,0,2,1,0,0,0,0,0
WW4-4BC-C2,C,PHAN,1,787.5,WW4,4BC,WW4_4BC,WW,4,BC,Co,0,2,1,0,0,0,0,0
WW4-4BD-D1,D,DAAE,1,258,WW4,4BD,WW4_4BD,WW,4,BD,Co,0,2,0,1,0,0,0,0
WW4-4BD-D2,D,DAAE,1,301,WW4,4BD,WW4_4BD,WW,4,BD,Co,0,2,0,1,0,0,0,0
WW4-4CD-C1,C,PHAN,1,1137.5,WW4,4CD,WW4_4CD,WW,4,CD,Co,0,0,1,2,0,0,0,0
WW4-4CD-C2,C,PHAN,0,0,WW4,4CD,WW4_4CD,WW,4,CD,Co,0,0,1,2,0,0,0,0
WW4-4CD-D1,D,DAAE,1,387,WW4,4CD,WW4_4CD,WW,4,CD,Co,0,0,2,1,0,0,0,0
WW4-4CD-D2,D,DAAE,1,430,WW4,4CD,WW4_4CD,WW,4,CD,Co,0,0,2,1,0,0,0,0
WW4-4CE-C1,C,PHAN,0,0,WW4,4CE,WW4_4CE,WW,4,CE,Co,0,0,1,0,2,0,0,0
WW4-4CE-C2,C,PHAN,0,0,WW4,4CE,WW4_4CE,WW,4,CE,Co,0,0,1,0,2,0,0,0
WW4-4CF-C1,C,PHAN,1,525,WW4,4CF,WW4_4CF,WW,4,CF,Co,0,0,1,0,0,2,0,0
WW4-4CF-C2,C,PHAN,1,2187.5,WW4,4CF,WW4_4CF,WW,4,CF,Co,0,0,1,0,0,2,0,0
WW4-4CG-C1,C,PHAN,1,87.5,WW4,4CG,WW4_4CG,WW,4,CG,Co,0,0,1,0,0,0,2,0
WW4-4CG-C2,C,PHAN,1,87.5,WW4,4CG,WW4_4CG,WW,4,CG,Co,0,0,1,0,0,0,2,0
WW4-4CH-C1,C,PHAN,1,350,WW4,4CH,WW4_4CH,WW,4,CH,Co,0,0,1,0,0,0,0,2
WW4-4CH-C2,C,PHAN,1,0,WW4,4CH,WW4_4CH,WW,4,CH,Co,0,0,1,0,0,0,0,2
WW4-4DE-D1,D,DAAE,1,215,WW4,4DE,WW4_4DE,WW,4,DE,Co,0,0,0,1,2,0,0,0
WW4-4DE-D2,D,DAAE,1,258,WW4,4DE,WW4_4DE,WW,4,DE,Co,0,0,0,1,2,0,0,0
WW4-4DF-D1,D,DAAE,1,301,WW4,4DF,WW4_4DF,WW,4,DF,Co,0,0,0,1,0,2,0,0
WW4-4DF-D2,D,DAAE,1,387,WW4,4DF,WW4_4DF,WW,4,DF,Co,0,0,0,1,0,2,0,0
WW4-4DG-D1,D,DAAE,1,258,WW4,4DG,WW4_4DG,WW,4,DG,Co,0,0,0,1,0,0,2,0
WW4-4DG-D2,D,DAAE,1,129,WW4,4DG,WW4_4DG,WW,4,DG,Co,0,0,0,1,0,0,2,0
WW4-4DH-D1,D,DAAE,1,344,WW4,4DH,WW4_4DH,WW,4,DH,Co,0,0,0,1,0,0,0,2
WW4-4DH-D2,D,DAAE,1,215,WW4,4DH,WW4_4DH,WW,4,DH,Co,0,0,0,1,0,0,0,2
WW4-8C-C1,C,PHAN,1,0,WW4,8C,WW4_8C,WW,8,C,Mono,0,0,7,0,0,0,0,0
WW4-8C-C2,C,PHAN,1,350,WW4,8C,WW4_8C,WW,8,C,Mono,0,0,7,0,0,0,0,0
WW4-8C-C3,C,PHAN,1,87.5,WW4,8C,WW4_8C,WW,8,C,Mono,0,0,7,0,0,0,0,0
WW4-8C-C4,C,PHAN,1,0,WW4,8C,WW4_8C,WW,8,C,Mono,0,0,7,0,0,0,0,0
WW4-8C-C5,C,PHAN,1,175,WW4,8C,WW4_8C,WW,8,C,Mono,0,0,7,0,0,0,0,0
WW4-8C-C6,C,PHAN,1,262.5,WW4,8C,WW4_8C,WW,8,C,Mono,0,0,7,0,0,0,0,0
WW4-8C-C7,C,PHAN,1,612.5,WW4,8C,WW4_8C,WW,8,C,Mono,0,0,7,0,0,0,0,0
WW4-8C-C8,C,PHAN,1,350,WW4,8C,WW4_8C,WW,8,C,Mono,0,0,7,0,0,0,0,0
WW4-8D-D1,D,DAAE,1,172,WW4,8D,WW4_8D,WW,8,D,Mono,0,0,0,7,0,0,0,0
WW4-8D-D2,D,DAAE,1,129,WW4,8D,WW4_8D,WW,8,D,Mono,0,0,0,7,0,0,0,0
WW4-8D-D3,D,DAAE,1,129,WW4,8D,WW4_8D,WW,8,D,Mono,0,0,0,7,0,0,0,0
WW4-8D-D4,D,DAAE,1,129,WW4,8D,WW4_8D,WW,8,D,Mono,0,0,0,7,0,0,0,0
WW4-8D-D5,D,DAAE,1,86,WW4,8D,WW4_8D,WW,8,D,Mono,0,0,0,7,0,0,0,0
WW4-8D-D6,D,DAAE,1,129,WW4,8D,WW4_8D,WW,8,D,Mono,0,0,0,7,0,0,0,0
WW4-8D-D7,D,DAAE,1,172,WW4,8D,WW4_8D,WW,8,D,Mono,0,0,0,7,0,0,0,0
WW4-8D-D8,D,DAAE,1,86,WW4,8D,WW4_8D,WW,8,D,Mono,0,0,0,7,0,0,0,0
WW4-8AC-C1,C,PHAN,1,262.5,WW4,8AC,WW4_8AC,WW,8,AC,Co,4,0,3,0,0,0,0,0
WW4-8AC-C2,C,PHAN,1,262.5,WW4,8AC,WW4_8AC,WW,8,AC,Co,4,0,3,0,0,0,0,0
WW4-8AC-C3,C,PHAN,1,262.5,WW4,8AC,WW4_8AC,WW,8,AC,Co,4,0,3,0,0,0,0,0
WW4-8AC-C4,C,PHAN,0,0,WW4,8AC,WW4_8AC,WW,8,AC,Co,4,0,3,0,0,0,0,0
WW4-8AD-D1,D,DAAE,1,129,WW4,8AD,WW4_8AD,WW,8,AD,Co,4,0,0,3,0,0,0,0
WW4-8AD-D2,D,DAAE,1,129,WW4,8AD,WW4_8AD,WW,8,AD,Co,4,0,0,3,0,0,0,0
WW4-8AD-D3,D,DAAE,1,172,WW4,8AD,WW4_8AD,WW,8,AD,Co,4,0,0,3,0,0,0,0
WW4-8AD-D4,D,DAAE,1,86,WW4,8AD,WW4_8AD,WW,8,AD,Co,4,0,0,3,0,0,0,0
WW4-8BC-C1,C,PHAN,1,875,WW4,8BC,WW4_8BC,WW,8,BC,Co,0,4,3,0,0,0,0,0
WW4-8BC-C2,C,PHAN,1,962.5,WW4,8BC,WW4_8BC,WW,8,BC,Co,0,4,3,0,0,0,0,0
WW4-8BC-C3,C,PHAN,1,962.5,WW4,8BC,WW4_8BC,WW,8,BC,Co,0,4,3,0,0,0,0,0
WW4-8BC-C4,C,PHAN,0,0,WW4,8BC,WW4_8BC,WW,8,BC,Co,0,4,3,0,0,0,0,0
WW4-8BD-D1,D,DAAE,1,172,WW4,8BD,WW4_8BD,WW,8,BD,Co,0,4,0,3,0,0,0,0
WW4-8BD-D2,D,DAAE,1,86,WW4,8BD,WW4_8BD,WW,8,BD,Co,0,4,0,3,0,0,0,0
WW4-8BD-D3,D,DAAE,1,172,WW4,8BD,WW4_8BD,WW,8,BD,Co,0,4,0,3,0,0,0,0
WW4-8BD-D4,D,DAAE,1,172,WW4,8BD,WW4_8BD,WW,8,BD,Co,0,4,0,3,0,0,0,0
WW4-8CD-C1,C,PHAN,1,0,WW4,8CD,WW4_8CD,WW,8,CD,Co,0,0,3,4,0,0,0,0
WW4-8CD-C2,C,PHAN,1,262.5,WW4,8CD,WW4_8CD,WW,8,CD,Co,0,0,3,4,0,0,0,0
WW4-8CD-C3,C,PHAN,1,262.5,WW4,8CD,WW4_8CD,WW,8,CD,Co,0,0,3,4,0,0,0,0
WW4-8CD-C4,C,PHAN,1,262.5,WW4,8CD,WW4_8CD,WW,8,CD,Co,0,0,3,4,0,0,0,0
WW4-8CD-D1,D,DAAE,1,172,WW4,8CD,WW4_8CD,WW,8,CD,Co,0,0,4,3,0,0,0,0
WW4-8CD-D2,D,DAAE,1,258,WW4,8CD,WW4_8CD,WW,8,CD,Co,0,0,4,3,0,0,0,0
WW4-8CD-D3,D,DAAE,1,215,WW4,8CD,WW4_8CD,WW,8,CD,Co,0,0,4,3,0,0,0,0
WW4-8CD-D4,D,DAAE,1,129,WW4,8CD,WW4_8CD,WW,8,CD,Co,0,0,4,3,0,0,0,0
WW4-8CE-C1,C,PHAN,1,262.5,WW4,8CE,WW4_8CE,WW,8,CE,Co,0,0,3,0,4,0,0,0
WW4-8CE-C2,C,PHAN,0,0,WW4,8CE,WW4_8CE,WW,8,CE,Co,0,0,3,0,4,0,0,0
WW4-8CE-C3,C,PHAN,0,0,WW4,8CE,WW4_8CE,WW,8,CE,Co,0,0,3,0,4,0,0,0
WW4-8CE-C4,C,PHAN,0,0,WW4,8CE,WW4_8CE,WW,8,CE,Co,0,0,3,0,4,0,0,0
WW4-8CF-C1,C,PHAN,1,350,WW4,8CF,WW4_8CF,WW,8,CF,Co,0,0,3,0,0,4,0,0
WW4-8CF-C2,C,PHAN,1,350,WW4,8CF,WW4_8CF,WW,8,CF,Co,0,0,3,0,0,4,0,0
WW4-8CF-C3,C,PHAN,1,0,WW4,8CF,WW4_8CF,WW,8,CF,Co,0,0,3,0,0,4,0,0
WW4-8CF-C4,C,PHAN,1,0,WW4,8CF,WW4_8CF,WW,8,CF,Co,0,0,3,0,0,4,0,0
WW4-8CG-C1,C,PHAN,1,262.5,WW4,8CG,WW4_8CG,WW,8,CG,Co,0,0,3,0,0,0,4,0
WW4-8CG-C2,C,PHAN,1,175,WW4,8CG,WW4_8CG,WW,8,CG,Co,0,0,3,0,0,0,4,0
WW4-8CG-C3,C,PHAN,1,175,WW4,8CG,WW4_8CG,WW,8,CG,Co,0,0,3,0,0,0,4,0
WW4-8CG-C4,C,PHAN,1,0,WW4,8CG,WW4_8CG,WW,8,CG,Co,0,0,3,0,0,0,4,0
WW4-8CH-C1,C,PHAN,1,0,WW4,8CH,WW4_8CH,WW,8,CH,Co,0,0,3,0,0,0,0,4
WW4-8CH-C2,C,PHAN,1,0,WW4,8CH,WW4_8CH,WW,8,CH,Co,0,0,3,0,0,0,0,4
WW4-8CH-C3,C,PHAN,1,0,WW4,8CH,WW4_8CH,WW,8,CH,Co,0,0,3,0,0,0,0,4
WW4-8CH-C4,C,PHAN,1,0,WW4,8CH,WW4_8CH,WW,8,CH,Co,0,0,3,0,0,0,0,4
WW4-8DE-D1,D,DAAE,1,258,WW4,8DE,WW4_8DE,WW,8,DE,Co,0,0,0,3,4,0,0,0
WW4-8DE-D2,D,DAAE,1,129,WW4,8DE,WW4_8DE,WW,8,DE,Co,0,0,0,3,4,0,0,0
WW4-8DE-D3,D,DAAE,1,301,WW4,8DE,WW4_8DE,WW,8,DE,Co,0,0,0,3,4,0,0,0
WW4-8DE-D4,D,DAAE,1,129,WW4,8DE,WW4_8DE,WW,8,DE,Co,0,0,0,3,4,0,0,0
WW4-8DF-D1,D,DAAE,1,129,WW4,8DF,WW4_8DF,WW,8,DF,Co,0,0,0,3,0,4,0,0
WW4-8DF-D2,D,DAAE,1,430,WW4,8DF,WW4_8DF,WW,8,DF,Co,0,0,0,3,0,4,0,0
WW4-8DF-D3,D,DAAE,1,172,WW4,8DF,WW4_8DF,WW,8,DF,Co,0,0,0,3,0,4,0,0
WW4-8DF-D4,D,DAAE,0,0,WW4,8DF,WW4_8DF,WW,8,DF,Co,0,0,0,3,0,4,0,0
WW4-8DG-D1,D,DAAE,1,86,WW4,8DG,WW4_8DG,WW,8,DG,Co,0,0,0,3,0,0,4,0
WW4-8DG-D2,D,DAAE,1,172,WW4,8DG,WW4_8DG,WW,8,DG,Co,0,0,0,3,0,0,4,0
WW4-8DG-D3,D,DAAE,1,172,WW4,8DG,WW4_8DG,WW,8,DG,Co,0,0,0,3,0,0,4,0
WW4-8DG-D4,D,DAAE,1,344,WW4,8DG,WW4_8DG,WW,8,DG,Co,0,0,0,3,0,0,4,0
WW4-8DH-D1,D,DAAE,1,86,WW4,8DH,WW4_8DH,WW,8,DH,Co,0,0,0,3,0,0,0,4
WW4-8DH-D2,D,DAAE,1,129,WW4,8DH,WW4_8DH,WW,8,DH,Co,0,0,0,3,0,0,0,4
WW4-8DH-D3,D,DAAE,1,473,WW4,8DH,WW4_8DH,WW,8,DH,Co,0,0,0,3,0,0,0,4
WW4-8DH-D4,D,DAAE,1,129,WW4,8DH,WW4_8DH,WW,8,DH,Co,0,0,0,3,0,0,0,4
WD3-2C-C1,C,PHAN,1,525,WD3,2C,WD3_2C,WD,2,C,Mono,0,0,1,0,0,0,0,0
WD3-2C-C2,C,PHAN,1,700,WD3,2C,WD3_2C,WD,2,C,Mono,0,0,1,0,0,0,0,0
WD3-2D-D1,D,DAAE,1,516,WD3,2D,WD3_2D,WD,2,D,Mono,0,0,0,1,0,0,0,0
WD3-2D-D2,D,DAAE,0,0,WD3,2D,WD3_2D,WD,2,D,Mono,0,0,0,1,0,0,0,0
WD3-2AC-C,C,PHAN,1,0,WD3,2AC,WD3_2AC,WD,2,AC,Co,1,0,0,0,0,0,0,0
WD3-2AD-D,D,DAAE,0,0,WD3,2AD,WD3_2AD,WD,2,AD,Co,1,0,0,0,0,0,0,0
WD3-2BC-C,C,PHAN,1,0,WD3,2BC,WD3_2BC,WD,2,BC,Co,0,1,0,0,0,0,0,0
WD3-2BD-D,D,DAAE,1,344,WD3,2BD,WD3_2BD,WD,2,BD,Co,0,1,0,0,0,0,0,0
WD3-2CD-C,C,PHAN,1,0,WD3,2CD,WD3_2CD,WD,2,CD,Co,0,0,0,1,0,0,0,0
WD3-2CD-D,D,DAAE,1,602,WD3,2CD,WD3_2CD,WD,2,CD,Co,0,0,1,0,0,0,0,0
WD3-2CE-C,C,PHAN,1,350,WD3,2CE,WD3_2CE,WD,2,CE,Co,0,0,0,0,1,0,0,0
WD3-2CF-C,C,PHAN,1,787.5,WD3,2CF,WD3_2CF,WD,2,CF,Co,0,0,0,0,0,1,0,0
WD3-2CG-C,C,PHAN,1,0,WD3,2CG,WD3_2CG,WD,2,CG,Co,0,0,0,0,0,0,1,0
WD3-2CH-C,C,PHAN,1,0,WD3,2CH,WD3_2CH,WD,2,CH,Co,0,0,0,0,0,0,0,1
WD3-2DE-D,D,DAAE,1,559,WD3,2DE,WD3_2DE,WD,2,DE,Co,0,0,0,0,1,0,0,0
WD3-2DF-D,D,DAAE,1,688,WD3,2DF,WD3_2DF,WD,2,DF,Co,0,0,0,0,0,1,0,0
WD3-2DG-D,D,DAAE,1,516,WD3,2DG,WD3_2DG,WD,2,DG,Co,0,0,0,0,0,0,1,0
WD3-2DH-D,D,DAAE,1,516,WD3,2DH,WD3_2DH,WD,2,DH,Co,0,0,0,0,0,0,0,1
WD3-4C-C1,C,PHAN,1,0,WD3,4C,WD3_4C,WD,4,C,Mono,0,0,3,0,0,0,0,0
WD3-4C-C2,C,PHAN,1,612.5,WD3,4C,WD3_4C,WD,4,C,Mono,0,0,3,0,0,0,0,0
WD3-4C-C3,C,PHAN,1,700,WD3,4C,WD3_4C,WD,4,C,Mono,0,0,3,0,0,0,0,0
WD3-4C-C4,C,PHAN,1,787.5,WD3,4C,WD3_4C,WD,4,C,Mono,0,0,3,0,0,0,0,0
WD3-4D-D1,D,DAAE,1,129,WD3,4D,WD3_4D,WD,4,D,Mono,0,0,0,3,0,0,0,0
WD3-4D-D2,D,DAAE,1,86,WD3,4D,WD3_4D,WD,4,D,Mono,0,0,0,3,0,0,0,0
WD3-4D-D3,D,DAAE,1,215,WD3,4D,WD3_4D,WD,4,D,Mono,0,0,0,3,0,0,0,0
WD3-4D-D4,D,DAAE,1,559,WD3,4D,WD3_4D,WD,4,D,Mono,0,0,0,3,0,0,0,0
WD3-4AC-C1,C,PHAN,1,350,WD3,4AC,WD3_4AC,WD,4,AC,Co,2,0,1,0,0,0,0,0
WD3-4AC-C2,C,PHAN,1,0,WD3,4AC,WD3_4AC,WD,4,AC,Co,2,0,1,0,0,0,0,0
WD3-4AD-D1,D,DAAE,1,258,WD3,4AD,WD3_4AD,WD,4,AD,Co,2,0,0,1,0,0,0,0
WD3-4AD-D2,D,DAAE,1,215,WD3,4AD,WD3_4AD,WD,4,AD,Co,2,0,0,1,0,0,0,0
WD3-4BC-C1,C,PHAN,1,787.5,WD3,4BC,WD3_4BC,WD,4,BC,Co,0,2,1,0,0,0,0,0
WD3-4BC-C2,C,PHAN,1,350,WD3,4BC,WD3_4BC,WD,4,BC,Co,0,2,1,0,0,0,0,0
WD3-4BD-D1,D,DAAE,1,86,WD3,4BD,WD3_4BD,WD,4,BD,Co,0,2,0,1,0,0,0,0
WD3-4BD-D2,D,DAAE,1,301,WD3,4BD,WD3_4BD,WD,4,BD,Co,0,2,0,1,0,0,0,0
WD3-4CD-C1,C,PHAN,1,437.5,WD3,4CD,WD3_4CD,WD,4,CD,Co,0,0,1,2,0,0,0,0
WD3-4CD-C2,C,PHAN,1,350,WD3,4CD,WD3_4CD,WD,4,CD,Co,0,0,1,2,0,0,0,0
WD3-4CD-D1,D,DAAE,1,129,WD3,4CD,WD3_4CD,WD,4,CD,Co,0,0,2,1,0,0,0,0
WD3-4CD-D2,D,DAAE,1,387,WD3,4CD,WD3_4CD,WD,4,CD,Co,0,0,2,1,0,0,0,0
WD3-4CE-C1,C,PHAN,0,0,WD3,4CE,WD3_4CE,WD,4,CE,Co,0,0,1,0,2,0,0,0
WD3-4CE-C2,C,PHAN,1,875,WD3,4CE,WD3_4CE,WD,4,CE,Co,0,0,1,0,2,0,0,0
WD3-4CF-C1,C,PHAN,1,0,WD3,4CF,WD3_4CF,WD,4,CF,Co,0,0,1,0,0,2,0,0
WD3-4CF-C2,C,PHAN,1,0,WD3,4CF,WD3_4CF,WD,4,CF,Co,0,0,1,0,0,2,0,0
WD3-4CG-C1,C,PHAN,0,0,WD3,4CG,WD3_4CG,WD,4,CG,Co,0,0,1,0,0,0,2,0