No,Sp,Species,Survival,num_seeds,Block,Pot,Pot,Raintype,Density,Composition,Culture,n_BIPI,n_OPCO,n_PHAN,n_DAAE,n_POHY,n_PRCL,n_AGCO,n_LUHY
WD3-4CG-C2,C,PHAN,1,0,WD3,4CG,WD3_4CG,WD,4,CG,Co,0,0,1,0,0,0,2,0
WD3-4CH-C1,C,PHAN,1,0,WD3,4CH,WD3_4CH,WD,4,CH,Co,0,0,1,0,0,0,0,2
WD3-4CH-C2,C,PHAN,1,0,WD3,4CH,WD3_4CH,WD,4,CH,Co,0,0,1,0,0,0,0,2
WD3-4DE-D1,D,DAAE,1,215,WD3,4DE,WD3_4DE,WD,4,DE,Co,0,0,0,1,2,0,0,0
WD3-4DE-D2,D,DAAE,1,430,WD3,4DE,WD3_4DE,WD,4,DE,Co,0,0,0,1,2,0,0,0
WD3-4DF-D1,D,DAAE,1,258,WD3,4DF,WD3_4DF,WD,4,DF,Co,0,0,0,1,0,2,0,0
WD3-4DF-D2,D,DAAE,0,0,WD3,4DF,WD3_4DF,WD,4,DF,Co,0,0,0,1,0,2,0,0
WD3-4DG-D1,D,DAAE,0,0,WD3,4DG,WD3_4DG,WD,4,DG,Co,0,0,0,1,0,0,2,0
WD3-4DG-D2,D,DAAE,0,0,WD3,4DG,WD3_4DG,WD,4,DG,Co,0,0,0,1,0,0,2,0
WD3-4DH-D1,D,DAAE,1,473,WD3,4DH,WD3_4DH,WD,4,DH,Co,0,0,0,1,0,0,0,2
WD3-4DH-D2,D,DAAE,0,0,WD3,4DH,WD3_4DH,WD,4,DH,Co,0,0,0,1,0,0,0,2
WD3-8C-C1,C,PHAN,1,787.5,WD3,8C,WD3_8C,WD,8,C,Mono,0,0,7,0,0,0,0,0
WD3-8C-C2,C,PHAN,1,262.5,WD3,8C,WD3_8C,WD,8,C,Mono,0,0,7,0,0,0,0,0
WD3-8C-C3,C,PHAN,1,525,WD3,8C,WD3_8C,WD,8,C,Mono,0,0,7,0,0,0,0,0
WD3-8C-C4,C,PHAN,1,262.5,WD3,8C,WD3_8C,WD,8,C,Mono,0,0,7,0,0,0,0,0
WD3-8C-C5,C,PHAN,1,437.5,WD3,8C,WD3_8C,WD,8,C,Mono,0,0,7,0,0,0,0,0
WD3-8C-C6,C,PHAN,1,612.5,WD3,8C,WD3_8C,WD,8,C,Mono,0,0,7,0,0,0,0,0
WD3-8C-C7,C,PHAN,1,437.5,WD3,8C,WD3_8C,WD,8,C,Mono,0,0,7,0,0,0,0,0
WD3-8C-C8,C,PHAN,1,175,WD3,8C,WD3_8C,WD,8,C,Mono,0,0,7,0,0,0,0,0
WD3-8D-D1,D,DAAE,1,129,WD3,8D,WD3_8D,WD,8,D,Mono,0,0,0,7,0,0,0,0
WD3-8D-D2,D,DAAE,1,172,WD3,8D,WD3_8D,WD,8,D,Mono,0,0,0,7,0,0,0,0
WD3-8D-D3,D,DAAE,1,172,WD3,8D,WD3_8D,WD,8,D,Mono,0,0,0,7,0,0,0,0
WD3-8D-D4,D,DAAE,1,215,WD3,8D,WD3_8D,WD,8,D,Mono,0,0,0,7,0,0,0,0
WD3-8D-D5,D,DAAE,1,258,WD3,8D,WD3_8D,WD,8,D,Mono,0,0,0,7,0,0,0,0
WD3-8D-D6,D,DAAE,1,43,WD3,8D,WD3_8D,WD,8,D,Mono,0,0,0,7,0,0,0,0
WD3-8D-D7,D,DAAE,1,301,WD3,8D,WD3_8D,WD,8,D,Mono,0,0,0,7,0,0,0,0
WD3-8D-D8,D,DAAE,0,0,WD3,8D,WD3_8D,WD,8,D,Mono,0,0,0,7,0,0,0,0
WD3-8AC-C1,C,PHAN,0,0,WD3,8AC,WD3_8AC,WD,8,AC,Co,4,0,3,0,0,0,0,0
WD3-8AC-C2,C,PHAN,0,0,WD3,8AC,WD3_8AC,WD,8,AC,Co,4,0,3,0,0,0,0,0
WD3-8AC-C3,C,PHAN,0,0,WD3,8AC,WD3_8AC,WD,8,AC,Co,4,0,3,0,0,0,0,0
WD3-8AC-C4,C,PHAN,0,0,WD3,8AC,WD3_8AC,WD,8,AC,Co,4,0,3,0,0,0,0,0
WD3-8AD-D1,D,DAAE,1,86,WD3,8AD,WD3_8AD,WD,8,AD,Co,4,0,0,3,0,0,0,0
WD3-8AD-D2,D,DAAE,1,215,WD3,8AD,WD3_8AD,WD,8,AD,Co,4,0,0,3,0,0,0,0
WD3-8AD-D3,D,DAAE,1,344,WD3,8AD,WD3_8AD,WD,8,AD,Co,4,0,0,3,0,0,0,0
WD3-8AD-D4,D,DAAE,1,215,WD3,8AD,WD3_8AD,WD,8,AD,Co,4,0,0,3,0,0,0,0
WD3-8BC-C1,C,PHAN,1,175,WD3,8BC,WD3_8BC,WD,8,BC,Co,0,4,3,0,0,0,0,0
WD3-8BC-C2,C,PHAN,1,87.5,WD3,8BC,WD3_8BC,WD,8,BC,Co,0,4,3,0,0,0,0,0
WD3-8BC-C3,C,PHAN,1,0,WD3,8BC,WD3_8BC,WD,8,BC,Co,0,4,3,0,0,0,0,0
WD3-8BC-C4,C,PHAN,0,0,WD3,8BC,WD3_8BC,WD,8,BC,Co,0,4,3,0,0,0,0,0
WD3-8BD-D1,D,DAAE,1,43,WD3,8BD,WD3_8BD,WD,8,BD,Co,0,4,0,3,0,0,0,0
WD3-8BD-D2,D,DAAE,1,129,WD3,8BD,WD3_8BD,WD,8,BD,Co,0,4,0,3,0,0,0,0
WD3-8BD-D3,D,DAAE,1,86,WD3,8BD,WD3_8BD,WD,8,BD,Co,0,4,0,3,0,0,0,0
WD3-8BD-D4,D,DAAE,1,344,WD3,8BD,WD3_8BD,WD,8,BD,Co,0,4,0,3,0,0,0,0
WD3-8CD-C1,C,PHAN,1,0,WD3,8CD,WD3_8CD,WD,8,CD,Co,0,0,3,4,0,0,0,0
WD3-8CD-C2,C,PHAN,1,0,WD3,8CD,WD3_8CD,WD,8,CD,Co,0,0,3,4,0,0,0,0
WD3-8CD-C3,C,PHAN,1,0,WD3,8CD,WD3_8CD,WD,8,CD,Co,0,0,3,4,0,0,0,0
WD3-8CD-C4,C,PHAN,1,0,WD3,8CD,WD3_8CD,WD,8,CD,Co,0,0,3,4,0,0,0,0
WD3-8CD-D1,D,DAAE,1,86,WD3,8CD,WD3_8CD,WD,8,CD,Co,0,0,4,3,0,0,0,0
WD3-8CD-D2,D,DAAE,1,172,WD3,8CD,WD3_8CD,WD,8,CD,Co,0,0,4,3,0,0,0,0
WD3-8CD-D3,D,DAAE,1,129,WD3,8CD,WD3_8CD,WD,8,CD,Co,0,0,4,3,0,0,0,0
WD3-8CD-D4,D,DAAE,0,0,WD3,8CD,WD3_8CD,WD,8,CD,Co,0,0,4,3,0,0,0,0
WD3-8CE-C1,C,PHAN,1,350,WD3,8CE,WD3_8CE,WD,8,CE,Co,0,0,3,0,4,0,0,0
WD3-8CE-C2,C,PHAN,1,175,WD3,8CE,WD3_8CE,WD,8,CE,Co,0,0,3,0,4,0,0,0
WD3-8CE-C3,C,PHAN,0,0,WD3,8CE,WD3_8CE,WD,8,CE,Co,0,0,3,0,4,0,0,0
WD3-8CE-C4,C,PHAN,0,0,WD3,8CE,WD3_8CE,WD,8,CE,Co,0,0,3,0,4,0,0,0
WD3-8CF-C1,C,PHAN,1,262.5,WD3,8CF,WD3_8CF,WD,8,CF,Co,0,0,3,0,0,4,0,0
WD3-8CF-C2,C,PHAN,1,175,WD3,8CF,WD3_8CF,WD,8,CF,Co,0,0,3,0,0,4,0,0
WD3-8CF-C3,C,PHAN,1,175,WD3,8CF,WD3_8CF,WD,8,CF,Co,0,0,3,0,0,4,0,0
WD3-8CF-C4,C,PHAN,1,0,WD3,8CF,WD3_8CF,WD,8,CF,Co,0,0,3,0,0,4,0,0
WD3-8CG-C1,C,PHAN,1,0,WD3,8CG,WD3_8CG,WD,8,CG,Co,0,0,3,0,0,0,4,0
WD3-8CG-C2,C,PHAN,1,175,WD3,8CG,WD3_8CG,WD,8,CG,Co,0,0,3,0,0,0,4,0
WD3-8CG-C3,C,PHAN,1,175,WD3,8CG,WD3_8CG,WD,8,CG,Co,0,0,3,0,0,0,4,0
WD3-8CG-C4,C,PHAN,1,350,WD3,8CG,WD3_8CG,WD,8,CG,Co,0,0,3,0,0,0,4,0
WD3-8CH-C1,C,PHAN,0,0,WD3,8CH,WD3_8CH,WD,8,CH,Co,0,0,3,0,0,0,0,4
WD3-8CH-C2,C,PHAN,0,0,WD3,8CH,WD3_8CH,WD,8,CH,Co,0,0,3,0,0,0,0,4
WD3-8CH-C3,C,PHAN,0,0,WD3,8CH,WD3_8CH,WD,8,CH,Co,0,0,3,0,0,0,0,4
WD3-8CH-C4,C,PHAN,0,0,WD3,8CH,WD3_8CH,WD,8,CH,Co,0,0,3,0,0,0,0,4
WD3-8DE-D1,D,DAAE,1,43,WD3,8DE,WD3_8DE,WD,8,DE,Co,0,0,0,3,4,0,0,0
WD3-8DE-D2,D,DAAE,1,129,WD3,8DE,WD3_8DE,WD,8,DE,Co,0,0,0,3,4,0,0,0
WD3-8DE-D3,D,DAAE,1,430,WD3,8DE,WD3_8DE,WD,8,DE,Co,0,0,0,3,4,0,0,0
WD3-8DE-D4,D,DAAE,0,0,WD3,8DE,WD3_8DE,WD,8,DE,Co,0,0,0,3,4,0,0,0
WD3-8DF-D1,D,DAAE,1,258,WD3,8DF,WD3_8DF,WD,8,DF,Co,0,0,0,3,0,4,0,0
WD3-8DF-D2,D,DAAE,1,129,WD3,8DF,WD3_8DF,WD,8,DF,Co,0,0,0,3,0,4,0,0
WD3-8DF-D3,D,DAAE,1,344,WD3,8DF,WD3_8DF,WD,8,DF,Co,0,0,0,3,0,4,0,0
WD3-8DF-D4,D,DAAE,0,0,WD3,8DF,WD3_8DF,WD,8,DF,Co,0,0,0,3,0,4,0,0
WD3-8DG-D1,D,DAAE,1,86,WD3,8DG,WD3_8DG,WD,8,DG,Co,0,0,0,3,0,0,4,0
WD3-8DG-D2,D,DAAE,1,86,WD3,8DG,WD3_8DG,WD,8,DG,Co,0,0,0,3,0,0,4,0
WD3-8DG-D3,D,DAAE,1,86,WD3,8DG,WD3_8DG,WD,8,DG,Co,0,0,0,3,0,0,4,0
WD3-8DG-D4,D,DAAE,1,387,WD3,8DG,WD3_8DG,WD,8,DG,Co,0,0,0,3,0,0,4,0
WD3-8DH-D1,D,DAAE,1,172,WD3,8DH,WD3_8DH,WD,8,DH,Co,0,0,0,3,0,0,0,4
WD3-8DH-D2,D,DAAE,1,129,WD3,8DH,WD3_8DH,WD,8,DH,Co,0,0,0,3,0,0,0,4
WD3-8DH-D3,D,DAAE,1,86,WD3,8DH,WD3_8DH,WD,8,DH,Co,0,0,0,3,0,0,0,4
WD3-8DH-D4,D,DAAE,1,215,WD3,8DH,WD3_8DH,WD,8,DH,Co,0,0,0,3,0,0,0,4
WD4-2C-C1,C,PHAN,1,700,WD4,2C,WD4_2C,WD,2,C,Mono,0,0,1,0,0,0,0,0
WD4-2C-C2,C,PHAN,1,612.5,WD4,2C,WD4_2C,WD,2,C,Mono,0,0,1,0,0,0,0,0
WD4-2D-D1,D,DAAE,1,258,WD4,2D,WD4_2D,WD,2,D,Mono,0,0,0,1,0,0,0,0
WD4-2D-D2,D,DAAE,0,0,WD4,2D,WD4_2D,WD,2,D,Mono,0,0,0,1,0,0,0,0
WD4-2AC-C,C,PHAN,1,0,WD4,2AC,WD4_2AC,WD,2,AC,Co,1,0,0,0,0,0,0,0
WD4-2AD-D,D,DAAE,1,602,WD4,2AD,WD4_2AD,WD,2,AD,Co,1,0,0,0,0,0,0,0
WD4-2BC-C,C,PHAN,1,1137.5,WD4,2BC,WD4_2BC,WD,2,BC,Co,0,1,0,0,0,0,0,0
WD4-2BD-D,D,DAAE,1,387,WD4,2BD,WD4_2BD,WD,2,BD,Co,0,1,0,0,0,0,0,0
WD4-2CD-C,C,PHAN,1,962.5,WD4,2CD,WD4_2CD,WD,2,CD,Co,0,0,0,1,0,0,0,0
WD4-2CD-D,D,DAAE,1,215,WD4,2CD,WD4_2CD,WD,2,CD,Co,0,0,1,0,0,0,0,0
WD4-2CE-C,C,PHAN,1,1050,WD4,2CE,WD4_2CE,WD,2,CE,Co,0,0,0,0,1,0,0,0
WD4-2CF-C,C,PHAN,1,1137.5,WD4,2CF,WD4_2CF,WD,2,CF,Co,0,0,0,0,0,1,0,0
WD4-2CG-C,C,PHAN,1,612.5,WD4,2CG,WD4_2CG,WD,2,CG,Co,0,0,0,0,0,0,1,0
WD4-2CH-C,C,PHAN,0,0,WD4,2CH,WD4_2CH,WD,2,CH,Co,0,0,0,0,0,0,0,1
WD4-2DE-D,D,DAAE,1,301,WD4,2DE,WD4_2DE,WD,2,DE,Co,0,0,0,0,1,0,0,0
WD4-2DF-D,D,DAAE,1,688,WD4,2DF,WD4_2DF,WD,2,DF,Co,0,0,0,0,0,1,0,0
WD4-2DG-D,D,DAAE,1,516,WD4,2DG,WD4_2DG,WD,2,DG,Co,0,0,0,0,0,0,1,0
WD4-2DH-D,D,DAAE,1,258,WD4,2DH,WD4_2DH,WD,2,DH,Co,0,0,0,0,0,0,0,1
WD4-4C-C1,C,PHAN,1,525,WD4,4C,WD4_4C,WD,4,C,Mono,0,0,3,0,0,0,0,0
WD4-4C-C2,C,PHAN,1,612.5,WD4,4C,WD4_4C,WD,4,C,Mono,0,0,3,0,0,0,0,0
WD4-4C-C3,C,PHAN,1,612.5,WD4,4C,WD4_4C,WD,4,C,Mono,0,0,3,0,0,0,0,0
WD4-4C-C4,C,PHAN,1,962.5,WD4,4C,WD4_4C,WD,4,C,Mono,0,0,3,0,0,0,0,0
WD4-4D-D1,D,DAAE,1,86,WD4,4D,WD4_4D,WD,4,D,Mono,0,0,0,3,0,0,0,0
WD4-4D-D2,D,DAAE,1,129,WD4,4D,WD4_4D,WD,4,D,Mono,0,0,0,3,0,0,0,0
WD4-4D-D3,D,DAAE,1,129,WD4,4D,WD4_4D,WD,4,D,Mono,0,0,0,3,0,0,0,0
WD4-4D-D4,D,DAAE,1,430,WD4,4D,WD4_4D,WD,4,D,Mono,0,0,0,3,0,0,0,0
WD4-4AC-C1,C,PHAN,1,612.5,WD4,4AC,WD4_4AC,WD,4,AC,Co,2,0,1,0,0,0,0,0
WD4-4AC-C2,C,PHAN,1,525,WD4,4AC,WD4_4AC,WD,4,AC,Co,2,0,1,0,0,0,0,0
WD4-4AD-D1,D,DAAE,1,172,WD4,4AD,WD4_4AD,WD,4,AD,Co,2,0,0,1,0,0,0,0
WD4-4AD-D2,D,DAAE,1,215,WD4,4AD,WD4_4AD,WD,4,AD,Co,2,0,0,1,0,0,0,0
WD4-4BC-C1,C,PHAN,1,612.5,WD4,4BC,WD4_4BC,WD,4,BC,Co,0,2,1,0,0,0,0,0
WD4-4BC-C2,C,PHAN,1,787.5,WD4,4BC,WD4_4BC,WD,4,BC,Co,0,2,1,0,0,0,0,0
WD4-4BD-D1,D,DAAE,1,129,WD4,4BD,WD4_4BD,WD,4,BD,Co,0,2,0,1,0,0,0,0
WD4-4BD-D2,D,DAAE,1,344,WD4,4BD,WD4_4BD,WD,4,BD,Co,0,2,0,1,0,0,0,0
WD4-4CD-C1,C,PHAN,1,350,WD4,4CD,WD4_4CD,WD,4,CD,Co,0,0,1,2,0,0,0,0
WD4-4CD-C2,C,PHAN,0,0,WD4,4CD,WD4_4CD,WD,4,CD,Co,0,0,1,2,0,0,0,0
WD4-4CD-D1,D,DAAE,1,258,WD4,4CD,WD4_4CD,WD,4,CD,Co,0,0,2,1,0,0,0,0
WD4-4CD-D2,D,DAAE,0,0,WD4,4CD,WD4_4CD,WD,4,CD,Co,0,0,2,1,0,0,0,0
WD4-4CE-C1,C,PHAN,1,1312.5,WD4,4CE,WD4_4CE,WD,4,CE,Co,0,0,1,0,2,0,0,0
WD4-4CE-C2,C,PHAN,1,437.5,WD4,4CE,WD4_4CE,WD,4,CE,Co,0,0,1,0,2,0,0,0
WD4-4CF-C1,C,PHAN,1,262.5,WD4,4CF,WD4_4CF,WD,4,CF,Co,0,0,1,0,0,2,0,0
WD4-4CF-C2,C,PHAN,1,0,WD4,4CF,WD4_4CF,WD,4,CF,Co,0,0,1,0,0,2,0,0
WD4-4CG-C1,C,PHAN,1,350,WD4,4CG,WD4_4CG,WD,4,CG,Co,0,0,1,0,0,0,2,0
WD4-4CG-C2,C,PHAN,0,0,WD4,4CG,WD4_4CG,WD,4,CG,Co,0,0,1,0,0,0,2,0
WD4-4CH-C1,C,PHAN,0,0,WD4,4CH,WD4_4CH,WD,4,CH,Co,0,0,1,0,0,0,0,2
WD4-4CH-C2,C,PHAN,0,0,WD4,4CH,WD4_4CH,WD,4,CH,Co,0,0,1,0,0,0,0,2
WD4-4DE-D1,D,DAAE,1,344,WD4,4DE,WD4_4DE,WD,4,DE,Co,0,0,0,1,2,0,0,0
WD4-4DE-D2,D,DAAE,0,0,WD4,4DE,WD4_4DE,WD,4,DE,Co,0,0,0,1,2,0,0,0
WD4-4DF-D1,D,DAAE,1,344,WD4,4DF,WD4_4DF,WD,4,DF,Co,0,0,0,1,0,2,0,0
WD4-4DF-D2,D,DAAE,1,301,WD4,4DF,WD4_4DF,WD,4,DF,Co,0,0,0,1,0,2,0,0
WD4-4DG-D1,D,DAAE,1,258,WD4,4DG,WD4_4DG,WD,4,DG,Co,0,0,0,1,0,0,2,0
WD4-4DG-D2,D,DAAE,1,301,WD4,4DG,WD4_4DG,WD,4,DG,Co,0,0,0,1,0,0,2,0
WD4-4DH-D1,D,DAAE,1,215,WD4,4DH,WD4_4DH,WD,4,DH,Co,0,0,0,1,0,0,0,2
WD4-4DH-D2,D,DAAE,1,344,WD4,4DH,WD4_4DH,WD,4,DH,Co,0,0,0,1,0,0,0,2
WD4-8C-C1,C,PHAN,1,350,WD4,8C,WD4_8C,WD,8,C,Mono,0,0,7,0,0,0,0,0
WD4-8C-C2,C,PHAN,1,700,WD4,8C,WD4_8C,WD,8,C,Mono,0,0,7,0,0,0,0,0
WD4-8C-C3,C,PHAN,1,437.5,WD4,8C,WD4_8C,WD,8,C,Mono,0,0,7,0,0,0,0,0
WD4-8C-C4,C,PHAN,1,612.5,WD4,8C,WD4_8C,WD,8,C,Mono,0,0,7,0,0,0,0,0
WD4-8C-C5,C,PHAN,1,525,WD4,8C,WD4_8C,WD,8,C,Mono,0,0,7,0,0,0,0,0
WD4-8C-C6,C,PHAN,1,525,WD4,8C,WD4_8C,WD,8,C,Mono,0,0,7,0,0,0,0,0
WD4-8C-C7,C,PHAN,1,612.5,WD4,8C,WD4_8C,WD,8,C,Mono,0,0,7,0,0,0,0,0
WD4-8C-C8,C,PHAN,0,0,WD4,8C,WD4_8C,WD,8,C,Mono,0,0,7,0,0,0,0,0
WD4-8D-D1,D,DAAE,1,172,WD4,8D,WD4_8D,WD,8,D,Mono,0,0,0,7,0,0,0,0
WD4-8D-D2,D,DAAE,0,0,WD4,8D,WD4_8D,WD,8,D,Mono,0,0,0,7,0,0,0,0
WD4-8D-D3,D,DAAE,1,129,WD4,8D,WD4_8D,WD,8,D,Mono,0,0,0,7,0,0,0,0
WD4-8D-D4,D,DAAE,1,129,WD4,8D,WD4_8D,WD,8,D,Mono,0,0,0,7,0,0,0,0
WD4-8D-D5,D,DAAE,1,129,WD4,8D,WD4_8D,WD,8,D,Mono,0,0,0,7,0,0,0,0
WD4-8D-D6,D,DAAE,0,0,WD4,8D,WD4_8D,WD,8,D,Mono,0,0,0,7,0,0,0,0
WD4-8D-D7,D,DAAE,1,172,WD4,8D,WD4_8D,WD,8,D,Mono,0,0,0,7,0,0,0,0
WD4-8D-D8,D,DAAE,1,129,WD4,8D,WD4_8D,WD,8,D,Mono,0,0,0,7,0,0,0,0
WD4-8AC-C1,C,PHAN,1,0,WD4,8AC,WD4_8AC,WD,8,AC,Co,4,0,3,0,0,0,0,0
WD4-8AC-C2,C,PHAN,1,262.5,WD4,8AC,WD4_8AC,WD,8,AC,Co,4,0,3,0,0,0,0,0
WD4-8AC-C3,C,PHAN,1,350,WD4,8AC,WD4_8AC,WD,8,AC,Co,4,0,3,0,0,0,0,0
WD4-8AC-C4,C,PHAN,0,0,WD4,8AC,WD4_8AC,WD,8,AC,Co,4,0,3,0,0,0,0,0
WD4-8AD-D1,D,DAAE,1,172,WD4,8AD,WD4_8AD,WD,8,AD,Co,4,0,0,3,0,0,0,0
WD4-8AD-D2,D,DAAE,1,86,WD4,8AD,WD4_8AD,WD,8,AD,Co,4,0,0,3,0,0,0,0
WD4-8AD-D3,D,DAAE,1,172,WD4,8AD,WD4_8AD,WD,8,AD,Co,4,0,0,3,0,0,0,0
WD4-8AD-D4,D,DAAE,1,301,WD4,8AD,WD4_8AD,WD,8,AD,Co,4,0,0,3,0,0,0,0
WD4-8BC-C1,C,PHAN,1,700,WD4,8BC,WD4_8BC,WD,8,BC,Co,0,4,3,0,0,0,0,0
WD4-8BC-C2,C,PHAN,1,612.5,WD4,8BC,WD4_8BC,WD,8,BC,Co,0,4,3,0,0,0,0,0
WD4-8BC-C3,C,PHAN,1,962.5,WD4,8BC,WD4_8BC,WD,8,BC,Co,0,4,3,0,0,0,0,0
WD4-8BC-C4,C,PHAN,1,1050,WD4,8BC,WD4_8BC,WD,8,BC,Co,0,4,3,0,0,0,0,0
WD4-8BD-D1,D,DAAE,1,258,WD4,8BD,WD4_8BD,WD,8,BD,Co,0,4,0,3,0,0,0,0
WD4-8BD-D2,D,DAAE,1,86,WD4,8BD,WD4_8BD,WD,8,BD,Co,0,4,0,3,0,0,0,0
WD4-8BD-D3,D,DAAE,1,129,WD4,8BD,WD4_8BD,WD,8,BD,Co,0,4,0,3,0,0,0,0
WD4-8BD-D4,D,DAAE,1,430,WD4,8BD,WD4_8BD,WD,8,BD,Co,0,4,0,3,0,0,0,0
WD4-8CD-C1,C,PHAN,1,175,WD4,8CD,WD4_8CD,WD,8,CD,Co,0,0,3,4,0,0,0,0
WD4-8CD-C2,C,PHAN,1,262.5,WD4,8CD,WD4_8CD,WD,8,CD,Co,0,0,3,4,0,0,0,0
WD4-8CD-C3,C,PHAN,1,175,WD4,8CD,WD4_8CD,WD,8,CD,Co,0,0,3,4,0,0,0,0
WD4-8CD-C4,C,PHAN,1,175,WD4,8CD,WD4_8CD,WD,8,CD,Co,0,0,3,4,0,0,0,0
WD4-8CD-D1,D,DAAE,1,344,WD4,8CD,WD4_8CD,WD,8,CD,Co,0,0,4,3,0,0,0,0
WD4-8CD-D2,D,DAAE,1,43,WD4,8CD,WD4_8CD,WD,8,CD,Co,0,0,4,3,0,0,0,0
WD4-8CD-D3,D,DAAE,1,172,WD4,8CD,WD4_8CD,WD,8,CD,Co,0,0,4,3,0,0,0,0
WD4-8CD-D4,D,DAAE,1,387,WD4,8CD,WD4_8CD,WD,8,CD,Co,0,0,4,3,0,0,0,0
WD4-8CE-C1,C,PHAN,1,350,WD4,8CE,WD4_8CE,WD,8,CE,Co,0,0,3,0,4,0,0,0
WD4-8CE-C2,C,PHAN,1,787.5,WD4,8CE,WD4_8CE,WD,8,CE,Co,0,0,3,0,4,0,0,0
WD4-8CE-C3,C,PHAN,1,350,WD4,8CE,WD4_8CE,WD,8,CE,Co,0,0,3,0,4,0,0,0
WD4-8CE-C4,C,PHAN,1,0,WD4,8CE,WD4_8CE,WD,8,CE,Co,0,0,3,0,4,0,0,0
WD4-8CF-C1,C,PHAN,1,525,WD4,8CF,WD4_8CF,WD,8,CF,Co,0,0,3,0,0,4,0,0
WD4-8CF-C2,C,PHAN,1,437.5,WD4,8CF,WD4_8CF,WD,8,CF,Co,0,0,3,0,0,4,0,0
WD4-8CF-C3,C,PHAN,0,0,WD4,8CF,WD4_8CF,WD,8,CF,Co,0,0,3,0,0,4,0,0
WD4-8CF-C4,C,PHAN,0,0,WD4,8CF,WD4_8CF,WD,8,CF,Co,0,0,3,0,0,4,0,0
WD4-8CG-C1,C,PHAN,1,437.5,WD4,8CG,WD4_8CG,WD,8,CG,Co,0,0,3,0,0,0,4,0
WD4-8CG-C2,C,PHAN,1,0,WD4,8CG,WD4_8CG,WD,8,CG,Co,0,0,3,0,0,0,4,0
WD4-8CG-C3,C,PHAN,1,262.5,WD4,8CG,WD4_8CG,WD,8,CG,Co,0,0,3,0,0,0,4,0
WD4-8CG-C4,C,PHAN,1,700,WD4,8CG,WD4_8CG,WD,8,CG,Co,0,0,3,0,0,0,4,0
WD4-8CH-C1,C,PHAN,1,0,WD4,8CH,WD4_8CH,WD,8,CH,Co,0,0,3,0,0,0,0,4
WD4-8CH-C2,C,PHAN,0,0,WD4,8CH,WD4_8CH,WD,8,CH,Co,0,0,3,0,0,0,0,4
WD4-8CH-C3,C,PHAN,1,0,WD4,8CH,WD4_8CH,WD,8,CH,Co,0,0,3,0,0,0,0,4
WD4-8CH-C4,C,PHAN,1,700,WD4,8CH,WD4_8CH,WD,8,CH,Co,0,0,3,0,0,0,0,4
WD4-8DE-D1,D,DAAE,1,86,WD4,8DE,WD4_8DE,WD,8,DE,Co,0,0,0,3,4,0,0,0
WD4-8DE-D2,D,DAAE,1,559,WD4,8DE,WD4_8DE,WD,8,DE,Co,0,0,0,3,4,0,0,0
WD4-8DE-D3,D,DAAE,0,0,WD4,8DE,WD4_8DE,WD,8,DE,Co,0,0,0,3,4,0,0,0
WD4-8DE-D4,D,DAAE,0,0,WD4,8DE,WD4_8DE,WD,8,DE,Co,0,0,0,3,4,0,0,0
WD4-8DF-D1,D,DAAE,1,387,WD4,8DF,WD4_8DF,WD,8,DF,Co,0,0,0,3,0,4,0,0
WD4-8DF-D2,D,DAAE,1,86,WD4,8DF,WD4_8DF,WD,8,DF,Co,0,0,0,3,0,4,0,0
WD4-8DF-D3,D,DAAE,1,258,WD4,8DF,WD4_8DF,WD,8,DF,Co,0,0,0,3,0,4,0,0
WD4-8DF-D4,D,DAAE,0,0,WD4,8DF,WD4_8DF,WD,8,DF,Co,0,0,0,3,0,4,0,0
WD4-8DG-D1,D,DAAE,1,86,WD4,8DG,WD4_8DG,WD,8,DG,Co,0,0,0,3,0,0,4,0
WD4-8DG-D2,D,DAAE,1,43,WD4,8DG,WD4_8DG,WD,8,DG,Co,0,0,0,3,0,0,4,0
WD4-8DG-D3,D,DAAE,1,86,WD4,8DG,WD4_8DG,WD,8,DG,Co,0,0,0,3,0,0,4,0
WD4-8DG-D4,D,DAAE,1,344,WD4,8DG,WD4_8DG,WD,8,DG,Co,0,0,0,3,0,0,4,0
WD4-8DH-D1,D,DAAE,1,258,WD4,8DH,WD4_8DH,WD,8,DH,Co,0,0,0,3,0,0,0,4
WD4-8DH-D2,D,DAAE,1,129,WD4,8DH,WD4_8DH,WD,8,DH,Co,0,0,0,3,0,0,0,4
WD4-8DH-D3,D,DAAE,1,258,WD4,8DH,WD4_8DH,WD,8,DH,Co,0,0,0,3,0,0,0,4
WD4-8DH-D4,D,DAAE,0,0,WD4,8DH,WD4_8DH,WD,8,DH,Co,0,0,0,3,0,0,0,4
DW3-2C-C1,C,PHAN,1,1137.5,DW3,2C,DW3_2C,DW,2,C,Mono,0,0,1,0,0,0,0,0
DW3-2C-C2,C,PHAN,1,1575,DW3,2C,DW3_2C,DW,2,C,Mono,0,0,1,0,0,0,0,0
DW3-2D-D1,D,DAAE,1,344,DW3,2D,DW3_2D,DW,2,D,Mono,0,0,0,1,0,0,0,0
DW3-2D-D2,D,DAAE,1,301,DW3,2D,DW3_2D,DW,2,D,Mono,0,0,0,1,0,0,0,0
DW3-2AC-C,C,PHAN,1,0,DW3,2AC,DW3_2AC,DW,2,AC,Co,1,0,0,0,0,0,0,0
DW3-2AD-D,D,DAAE,1,516,DW3,2AD,DW3_2AD,DW,2,AD,Co,1,0,0,0,0,0,0,0
DW3-2BC-C,C,PHAN,1,0,DW3,2BC,DW3_2BC,DW,2,BC,Co,0,1,0,0,0,0,0,0
DW3-2BD-D,D,DAAE,1,387,DW3,2BD,DW3_2BD,DW,2,BD,Co,0,1,0,0,0,0,0,0
DW3-2CD-C,C,PHAN,1,262.5,DW3,2CD,DW3_2CD,DW,2,CD,Co,0,0,0,1,0,0,0,0
DW3-2CD-D,D,DAAE,1,473,DW3,2CD,DW3_2CD,DW,2,CD,Co,0,0,1,0,0,0,0,0
DW3-2CE-C,C,PHAN,1,0,DW3,2CE,DW3_2CE,DW,2,CE,Co,0,0,0,0,1,0,0,0
DW3-2CF-C,C,PHAN,1,0,DW3,2CF,DW3_2CF,DW,2,CF,Co,0,0,0,0,0,1,0,0
DW3-2CG-C,C,PHAN,1,437.5,DW3,2CG,DW3_2CG,DW,2,CG,Co,0,0,0,0,0,0,1,0
DW3-2CH-C,C,PHAN,1,0,DW3,2CH,DW3_2CH,DW,2,CH,Co,0,0,0,0,0,0,0,1
DW3-2DE-D,D,DAAE,1,387,DW3,2DE,DW3_2DE,DW,2,DE,Co,0,0,0,0,1,0,0,0
DW3-2DF-D,D,DAAE,1,473,DW3,2DF,DW3_2DF,DW,2,DF,Co,0,0,0,0,0,1,0,0
DW3-2DG-D,D,DAAE,1,430,DW3,2DG,DW3_2DG,DW,2,DG,Co,0,0,0,0,0,0,1,0
DW3-2DH-D,D,DAAE,1,645,DW3,2DH,DW3_2DH,DW,2,DH,Co,0,0,0,0,0,0,0,1
DW3-4C-C1,C,PHAN,1,1137.5,DW3,4C,DW3_4C,DW,4,C,Mono,0,0,3,0,0,0,0,0
DW3-4C-C2,C,PHAN,1,787.5,DW3,4C,DW3_4C,DW,4,C,Mono,0,0,3,0,0,0,0,0
DW3-4C-C3,C,PHAN,1,875,DW3,4C,DW3_4C,DW,4,C,Mono,0,0,3,0,0,0,0,0
DW3-4C-C4,C,PHAN,1,962.5,DW3,4C,DW3_4C,DW,4,C,Mono,0,0,3,0,0,0,0,0
DW3-4D-D1,D,DAAE,1,129,DW3,4D,DW3_4D,DW,4,D,Mono,0,0,0,3,0,0,0,0
DW3-4D-D2,D,DAAE,1,129,DW3,4D,DW3_4D,DW,4,D,Mono,0,0,0,3,0,0,0,0
DW3-4D-D3,D,DAAE,1,215,DW3,4D,DW3_4D,DW,4,D,Mono,0,0,0,3,0,0,0,0
DW3-4D-D4,D,DAAE,1,387,DW3,4D,DW3_4D,DW,4,D,Mono,0,0,0,3,0,0,0,0
DW3-4AC-C1,C,PHAN,1,175,DW3,4AC,DW3_4AC,DW,4,AC,Co,2,0,1,0,0,0,0,0
DW3-4AC-C2,C,PHAN,1,525,DW3,4AC,DW3_4AC,DW,4,AC,Co,2,0,1,0,0,0,0,0
DW3-4AD-D1,D,DAAE,1,86,DW3,4AD,DW3_4AD,DW,4,AD,Co,2,0,0,1,0,0,0,0
DW3-4AD-D2,D,DAAE,1,258,DW3,4AD,DW3_4AD,DW,4,AD,Co,2,0,0,1,0,0,0,0
DW3-4BC-C1,C,PHAN,1,1225,DW3,4BC,DW3_4BC,DW,4,BC,Co,0,2,1,0,0,0,0,0
DW3-4BC-C2,C,PHAN,1,700,DW3,4BC,DW3_4BC,DW,4,BC,Co,0,2,1,0,0,0,0,0
DW3-4BD-D1,D,DAAE,1,473,DW3,4BD,DW3_4BD,DW,4,BD,Co,0,2,0,1,0,0,0,0
DW3-4BD-D2,D,DAAE,1,215,DW3,4BD,DW3_4BD,DW,4,BD,Co,0,2,0,1,0,0,0,0
DW3-4CD-C1,C,PHAN,1,0,DW3,4CD,DW3_4CD,DW,4,CD,Co,0,0,1,2,0,0,0,0
DW3-4CD-C2,C,PHAN,1,525,DW3,4CD,DW3_4CD,DW,4,CD,Co,0,0,1,2,0,0,0,0
DW3-4CD-D1,D,DAAE,1,516,DW3,4CD,DW3_4CD,DW,4,CD,Co,0,0,2,1,0,0,0,0
DW3-4CD-D2,D,DAAE,0,0,DW3,4CD,DW3_4CD,DW,4,CD,Co,0,0,2,1,0,0,0,0
DW3-4CE-C1,C,PHAN,0,0,DW3,4CE,DW3_4CE,DW,4,CE,Co,0,0,1,0,2,0,0,0
DW3-4CE-C2,C,PHAN,1,87.5,DW3,4CE,DW3_4CE,DW,4,CE,Co,0,0,1,0,2,0,0,0
DW3-4CF-C1,C,PHAN,1,262.5,DW3,4CF,DW3_4CF,DW,4,CF,Co,0,0,1,0,0,2,0,0
DW3-4CF-C2,C,PHAN,1,350,DW3,4CF,DW3_4CF,DW,4,CF,Co,0,0,1,0,0,2,0,0
DW3-4CG-C1,C,PHAN,1,0,DW3,4CG,DW3_4CG,DW,4,CG,Co,0,0,1,0,0,0,2,0
DW3-4CG-C2,C,PHAN,1,350,DW3,4CG,DW3_4CG,DW,4,CG,Co,0,0,1,0,0,0,2,0
DW3-4CH-C1,C,PHAN,1,437.5,DW3,4CH,DW3_4CH,DW,4,CH,Co,0,0,1,0,0,0,0,2
DW3-4CH-C2,C,PHAN,1,350,DW3,4CH,DW3_4CH,DW,4,CH,Co,0,0,1,0,0,0,0,2
DW3-4DE-D1,D,DAAE,1,473,DW3,4DE,DW3_4DE,DW,4,DE,Co,0,0,0,1,2,0,0,0
DW3-4DE-D2,D,DAAE,1,387,DW3,4DE,DW3_4DE,DW,4,DE,Co,0,0,0,1,2,0,0,0
DW3-4DF-D1,D,DAAE,1,258,DW3,4DF,DW3_4DF,DW,4,DF,Co,0,0,0,1,0,2,0,0
DW3-4DF-D2,D,DAAE,1,344,DW3,4DF,DW3_4DF,DW,4,DF,Co,0,0,0,1,0,2,0,0
DW3-4DG-D1,D,DAAE,1,258,DW3,4DG,DW3_4DG,DW,4,DG,Co,0,0,0,1,0,0,2,0
DW3-4DG-D2,D,DAAE,1,43,DW3,4DG,DW3_4DG,DW,4,DG,Co,0,0,0,1,0,0,2,0
DW3-4DH-D1,D,DAAE,1,172,DW3,4DH,DW3_4DH,DW,4,DH,Co,0,0,0,1,0,0,0,2
DW3-4DH-D2,D,DAAE,1,129,DW3,4DH,DW3_4DH,DW,4,DH,Co,0,0,0,1,0,0,0,2
DW3-8C-C1,C,PHAN,1,0,DW3,8C,DW3_8C,DW,8,C,Mono,0,0,7,0,0,0,0,0
DW3-8C-C2,C,PHAN,0,0,DW3,8C,DW3_8C,DW,8,C,Mono,0,0,7,0,0,0,0,0
DW3-8C-C3,C,PHAN,0,0,DW3,8C,DW3_8C,DW,8,C,Mono,0,0,7,0,0,0,0,0
DW3-8C-C4,C,PHAN,1,962.5,DW3,8C,DW3_8C,DW,8,C,Mono,0,0,7,0,0,0,0,0
DW3-8C-C5,C,PHAN,0,0,DW3,8C,DW3_8C,DW,8,C,Mono,0,0,7,0,0,0,0,0
DW3-8C-C6,C,PHAN,1,0,DW3,8C,DW3_8C,DW,8,C,Mono,0,0,7,0,0,0,0,0
DW3-8C-C7,C,PHAN,1,350,DW3,8C,DW3_8C,DW,8,C,Mono,0,0,7,0,0,0,0,0
DW3-8C-C8,C,PHAN,1,175,DW3,8C,DW3_8C,DW,8,C,Mono,0,0,7,0,0,0,0,0
DW3-8D-D1,D,DAAE,1,129,DW3,8D,DW3_8D,DW,8,D,Mono,0,0,0,7,0,0,0,0
DW3-8D-D2,D,DAAE,1,86,DW3,8D,DW3_8D,DW,8,D,Mono,0,0,0,7,0,0,0,0
DW3-8D-D3,D,DAAE,1,172,DW3,8D,DW3_8D,DW,8,D,Mono,0,0,0,7,0,0,0,0
DW3-8D-D4,D,DAAE,1,172,DW3,8D,DW3_8D,DW,8,D,Mono,0,0,0,7,0,0,0,0
DW3-8D-D5,D,DAAE,1,172,DW3,8D,DW3_8D,DW,8,D,Mono,0,0,0,7,0,0,0,0
DW3-8D-D6,D,DAAE,1,301,DW3,8D,DW3_8D,DW,8,D,Mono,0,0,0,7,0,0,0,0
DW3-8D-D7,D,DAAE,0,0,DW3,8D,DW3_8D,DW,8,D,Mono,0,0,0,7,0,0,0,0
DW3-8D-D8,D,DAAE,0,0,DW3,8D,DW3_8D,DW,8,D,Mono,0,0,0,7,0,0,0,0
DW3-8AC-C1,C,PHAN,1,175,DW3,8AC,DW3_8AC,DW,8,AC,Co,4,0,3,0,0,0,0,0
DW3-8AC-C2,C,PHAN,0,0,DW3,8AC,DW3_8AC,DW,8,AC,Co,4,0,3,0,0,0,0,0
DW3-8AC-C3,C,PHAN,0,0,DW3,8AC,DW3_8AC,DW,8,AC,Co,4,0,3,0,0,0,0,0
DW3-8AC-C4,C,PHAN,1,0,DW3,8AC,DW3_8AC,DW,8,AC,Co,4,0,3,0,0,0,0,0
DW3-8AD-D1,D,DAAE,1,516,DW3,8AD,DW3_8AD,DW,8,AD,Co,4,0,0,3,0,0,0,0
DW3-8AD-D2,D,DAAE,1,258,DW3,8AD,DW3_8AD,DW,8,AD,Co,4,0,0,3,0,0,0,0
DW3-8AD-D3,D,DAAE,0,0,DW3,8AD,DW3_8AD,DW,8,AD,Co,4,0,0,3,0,0,0,0
DW3-8AD-D4,D,DAAE,0,0,DW3,8AD,DW3_8AD,DW,8,AD,Co,4,0,0,3,0,0,0,0
DW3-8BC-C1,C,PHAN,0,0,DW3,8BC,DW3_8BC,DW,8,BC,Co,0,4,3,0,0,0,0,0
DW3-8BC-C2,C,PHAN,0,0,DW3,8BC,DW3_8BC,DW,8,BC,Co,0,4,3,0,0,0,0,0
DW3-8BC-C3,C,PHAN,0,0,DW3,8BC,DW3_8BC,DW,8,BC,Co,0,4,3,0,0,0,0,0
DW3-8BC-C4,C,PHAN,0,0,DW3,8BC,DW3_8BC,DW,8,BC,Co,0,4,3,0,0,0,0,0
DW3-8BD-D1,D,DAAE,1,86,DW3,8BD,DW3_8BD,DW,8,BD,Co,0,4,0,3,0,0,0,0
DW3-8BD-D2,D,DAAE,1,129,DW3,8BD,DW3_8BD,DW,8,BD,Co,0,4,0,3,0,0,0,0
DW3-8BD-D3,D,DAAE,1,258,DW3,8BD,DW3_8BD,DW,8,BD,Co,0,4,0,3,0,0,0,0
DW3-8BD-D4,D,DAAE,1,258,DW3,8BD,DW3_8BD,DW,8,BD,Co,0,4,0,3,0,0,0,0
DW3-8CD-C1,C,PHAN,1,0,DW3,8CD,DW3_8CD,DW,8,CD,Co,0,0,3,4,0,0,0,0
DW3-8CD-C2,C,PHAN,1,0,DW3,8CD,DW3_8CD,DW,8,CD,Co,0,0,3,4,0,0,0,0
DW3-8CD-C3,C,PHAN,1,525,DW3,8CD,DW3_8CD,DW,8,CD,Co,0,0,3,4,0,0,0,0
DW3-8CD-C4,C,PHAN,0,0,DW3,8CD,DW3_8CD,DW,8,CD,Co,0,0,3,4,0,0,0,0
DW3-8CD-D1,D,DAAE,1,215,DW3,8CD,DW3_8CD,DW,8,CD,Co,0,0,4,3,0,0,0,0