No,Sp,Species,Survival,num_seeds,Block,Pot,Pot,Raintype,Density,Composition,Culture,n_BIPI,n_OPCO,n_PHAN,n_DAAE,n_POHY,n_PRCL,n_AGCO,n_LUHY
DW4-8E-E4,E,POHY,1,428,DW4,8E,DW4_8E,DW,8,E,Mono,0,0,0,0,7,0,0,0
DW4-8E-E5,E,POHY,1,535,DW4,8E,DW4_8E,DW,8,E,Mono,0,0,0,0,7,0,0,0
DW4-8E-E6,E,POHY,1,321,DW4,8E,DW4_8E,DW,8,E,Mono,0,0,0,0,7,0,0,0
DW4-8E-E7,E,POHY,1,321,DW4,8E,DW4_8E,DW,8,E,Mono,0,0,0,0,7,0,0,0
DW4-8E-E8,E,POHY,1,428,DW4,8E,DW4_8E,DW,8,E,Mono,0,0,0,0,7,0,0,0
DW4-8F-F1,F,PRCL,1,190.2,DW4,8F,DW4_8F,DW,8,F,Mono,0,0,0,0,0,7,0,0
DW4-8F-F2,F,PRCL,1,253.6,DW4,8F,DW4_8F,DW,8,F,Mono,0,0,0,0,0,7,0,0
DW4-8F-F3,F,PRCL,1,602.3,DW4,8F,DW4_8F,DW,8,F,Mono,0,0,0,0,0,7,0,0
DW4-8F-F4,F,PRCL,1,221.9,DW4,8F,DW4_8F,DW,8,F,Mono,0,0,0,0,0,7,0,0
DW4-8F-F5,F,PRCL,1,0,DW4,8F,DW4_8F,DW,8,F,Mono,0,0,0,0,0,7,0,0
DW4-8F-F6,F,PRCL,1,317,DW4,8F,DW4_8F,DW,8,F,Mono,0,0,0,0,0,7,0,0
DW4-8F-F7,F,PRCL,1,190.2,DW4,8F,DW4_8F,DW,8,F,Mono,0,0,0,0,0,7,0,0
DW4-8F-F8,F,PRCL,1,190.2,DW4,8F,DW4_8F,DW,8,F,Mono,0,0,0,0,0,7,0,0
DW4-8AE-E1,E,POHY,1,0,DW4,8AE,DW4_8AE,DW,8,AE,Co,4,0,0,0,3,0,0,0
DW4-8AE-E2,E,POHY,1,0,DW4,8AE,DW4_8AE,DW,8,AE,Co,4,0,0,0,3,0,0,0
DW4-8AE-E3,E,POHY,1,107,DW4,8AE,DW4_8AE,DW,8,AE,Co,4,0,0,0,3,0,0,0
DW4-8AE-E4,E,POHY,1,0,DW4,8AE,DW4_8AE,DW,8,AE,Co,4,0,0,0,3,0,0,0
DW4-8AF-F1,F,PRCL,1,126.8,DW4,8AF,DW4_8AF,DW,8,AF,Co,4,0,0,0,0,3,0,0
DW4-8AF-F2,F,PRCL,1,190.2,DW4,8AF,DW4_8AF,DW,8,AF,Co,4,0,0,0,0,3,0,0
DW4-8AF-F3,F,PRCL,1,95.1,DW4,8AF,DW4_8AF,DW,8,AF,Co,4,0,0,0,0,3,0,0
DW4-8AF-F4,F,PRCL,1,221.9,DW4,8AF,DW4_8AF,DW,8,AF,Co,4,0,0,0,0,3,0,0
DW4-8BE-E1,E,POHY,1,428,DW4,8BE,DW4_8BE,DW,8,BE,Co,0,4,0,0,3,0,0,0
DW4-8BE-E2,E,POHY,1,642,DW4,8BE,DW4_8BE,DW,8,BE,Co,0,4,0,0,3,0,0,0
DW4-8BE-E3,E,POHY,1,642,DW4,8BE,DW4_8BE,DW,8,BE,Co,0,4,0,0,3,0,0,0
DW4-8BE-E4,E,POHY,1,535,DW4,8BE,DW4_8BE,DW,8,BE,Co,0,4,0,0,3,0,0,0
DW4-8BF-F1,F,PRCL,1,253.6,DW4,8BF,DW4_8BF,DW,8,BF,Co,0,4,0,0,0,3,0,0
DW4-8BF-F2,F,PRCL,1,190.2,DW4,8BF,DW4_8BF,DW,8,BF,Co,0,4,0,0,0,3,0,0
DW4-8BF-F3,F,PRCL,1,412.1,DW4,8BF,DW4_8BF,DW,8,BF,Co,0,4,0,0,0,3,0,0
DW4-8BF-F4,F,PRCL,1,602.3,DW4,8BF,DW4_8BF,DW,8,BF,Co,0,4,0,0,0,3,0,0
DW4-8CE-E1,E,POHY,1,642,DW4,8CE,DW4_8CE,DW,8,CE,Co,0,0,4,0,3,0,0,0
DW4-8CE-E2,E,POHY,1,428,DW4,8CE,DW4_8CE,DW,8,CE,Co,0,0,4,0,3,0,0,0
DW4-8CE-E3,E,POHY,1,535,DW4,8CE,DW4_8CE,DW,8,CE,Co,0,0,4,0,3,0,0,0
DW4-8CE-E4,E,POHY,1,535,DW4,8CE,DW4_8CE,DW,8,CE,Co,0,0,4,0,3,0,0,0
DW4-8CF-F1,F,PRCL,1,348.7,DW4,8CF,DW4_8CF,DW,8,CF,Co,0,0,4,0,0,3,0,0
DW4-8CF-F2,F,PRCL,1,507.2,DW4,8CF,DW4_8CF,DW,8,CF,Co,0,0,4,0,0,3,0,0
DW4-8CF-F3,F,PRCL,1,475.5,DW4,8CF,DW4_8CF,DW,8,CF,Co,0,0,4,0,0,3,0,0
DW4-8CF-F4,F,PRCL,1,792.5,DW4,8CF,DW4_8CF,DW,8,CF,Co,0,0,4,0,0,3,0,0
DW4-8DE-E1,E,POHY,1,107,DW4,8DE,DW4_8DE,DW,8,DE,Co,0,0,0,4,3,0,0,0
DW4-8DE-E2,E,POHY,1,321,DW4,8DE,DW4_8DE,DW,8,DE,Co,0,0,0,4,3,0,0,0
DW4-8DE-E3,E,POHY,1,214,DW4,8DE,DW4_8DE,DW,8,DE,Co,0,0,0,4,3,0,0,0
DW4-8DE-E4,E,POHY,1,214,DW4,8DE,DW4_8DE,DW,8,DE,Co,0,0,0,4,3,0,0,0
DW4-8DF-F1,F,PRCL,0,0,DW4,8DF,DW4_8DF,DW,8,DF,Co,0,0,0,4,0,3,0,0
DW4-8DF-F2,F,PRCL,1,0,DW4,8DF,DW4_8DF,DW,8,DF,Co,0,0,0,4,0,3,0,0
DW4-8DF-F3,F,PRCL,1,126.8,DW4,8DF,DW4_8DF,DW,8,DF,Co,0,0,0,4,0,3,0,0
DW4-8DF-F4,F,PRCL,1,158.5,DW4,8DF,DW4_8DF,DW,8,DF,Co,0,0,0,4,0,3,0,0
DW4-8EF-E1,E,POHY,1,321,DW4,8EF,DW4_8EF,DW,8,EF,Co,0,0,0,0,3,4,0,0
DW4-8EF-E2,E,POHY,1,321,DW4,8EF,DW4_8EF,DW,8,EF,Co,0,0,0,0,3,4,0,0
DW4-8EF-E3,E,POHY,1,749,DW4,8EF,DW4_8EF,DW,8,EF,Co,0,0,0,0,3,4,0,0
DW4-8EF-E4,E,POHY,1,321,DW4,8EF,DW4_8EF,DW,8,EF,Co,0,0,0,0,3,4,0,0
DW4-8EF-F1,F,PRCL,1,317,DW4,8EF,DW4_8EF,DW,8,EF,Co,0,0,0,0,4,3,0,0
DW4-8EF-F2,F,PRCL,1,317,DW4,8EF,DW4_8EF,DW,8,EF,Co,0,0,0,0,4,3,0,0
DW4-8EF-F3,F,PRCL,1,253.6,DW4,8EF,DW4_8EF,DW,8,EF,Co,0,0,0,0,4,3,0,0
DW4-8EF-F4,F,PRCL,0,0,DW4,8EF,DW4_8EF,DW,8,EF,Co,0,0,0,0,4,3,0,0
DW4-8EG-E1,E,POHY,1,0,DW4,8EG,DW4_8EG,DW,8,EG,Co,0,0,0,0,3,0,4,0
DW4-8EG-E2,E,POHY,1,107,DW4,8EG,DW4_8EG,DW,8,EG,Co,0,0,0,0,3,0,4,0
DW4-8EG-E3,E,POHY,1,214,DW4,8EG,DW4_8EG,DW,8,EG,Co,0,0,0,0,3,0,4,0
DW4-8EG-E4,E,POHY,1,107,DW4,8EG,DW4_8EG,DW,8,EG,Co,0,0,0,0,3,0,4,0
DW4-8EH-E1,E,POHY,1,107,DW4,8EH,DW4_8EH,DW,8,EH,Co,0,0,0,0,3,0,0,4
DW4-8EH-E2,E,POHY,1,214,DW4,8EH,DW4_8EH,DW,8,EH,Co,0,0,0,0,3,0,0,4
DW4-8EH-E3,E,POHY,1,0,DW4,8EH,DW4_8EH,DW,8,EH,Co,0,0,0,0,3,0,0,4
DW4-8EH-E4,E,POHY,1,0,DW4,8EH,DW4_8EH,DW,8,EH,Co,0,0,0,0,3,0,0,4
DW4-8FG-F1,F,PRCL,1,63.4,DW4,8FG,DW4_8FG,DW,8,FG,Co,0,0,0,0,0,3,4,0
DW4-8FG-F2,F,PRCL,1,158.5,DW4,8FG,DW4_8FG,DW,8,FG,Co,0,0,0,0,0,3,4,0
DW4-8FG-F3,F,PRCL,1,158.5,DW4,8FG,DW4_8FG,DW,8,FG,Co,0,0,0,0,0,3,4,0
DW4-8FG-F4,F,PRCL,1,221.9,DW4,8FG,DW4_8FG,DW,8,FG,Co,0,0,0,0,0,3,4,0
DW4-8FH-F1,F,PRCL,1,126.8,DW4,8FH,DW4_8FH,DW,8,FH,Co,0,0,0,0,0,3,0,4
DW4-8FH-F2,F,PRCL,1,158.5,DW4,8FH,DW4_8FH,DW,8,FH,Co,0,0,0,0,0,3,0,4
DW4-8FH-F3,F,PRCL,1,95.1,DW4,8FH,DW4_8FH,DW,8,FH,Co,0,0,0,0,0,3,0,4
DW4-8FH-F4,F,PRCL,1,0,DW4,8FH,DW4_8FH,DW,8,FH,Co,0,0,0,0,0,3,0,4
DD3-2E-E1,E,POHY,1,642,DD3,2E,DD3_2E,DD,2,E,Mono,0,0,0,0,1,0,0,0
DD3-2E-E2,E,POHY,1,535,DD3,2E,DD3_2E,DD,2,E,Mono,0,0,0,0,1,0,0,0
DD3-2F-F1,F,PRCL,1,792.5,DD3,2F,DD3_2F,DD,2,F,Mono,0,0,0,0,0,1,0,0
DD3-2F-F2,F,PRCL,1,951,DD3,2F,DD3_2F,DD,2,F,Mono,0,0,0,0,0,1,0,0
DD3-2AE-E,E,POHY,1,321,DD3,2AE,DD3_2AE,DD,2,AE,Co,1,0,0,0,0,0,0,0
DD3-2AF-F,F,PRCL,1,729.1,DD3,2AF,DD3_2AF,DD,2,AF,Co,1,0,0,0,0,0,0,0
DD3-2BE-E,E,POHY,1,0,DD3,2BE,DD3_2BE,DD,2,BE,Co,0,1,0,0,0,0,0,0
DD3-2BF-F,F,PRCL,1,1775.2,DD3,2BF,DD3_2BF,DD,2,BF,Co,0,1,0,0,0,0,0,0
DD3-2CE-E,E,POHY,1,321,DD3,2CE,DD3_2CE,DD,2,CE,Co,0,0,1,0,0,0,0,0
DD3-2CF-F,F,PRCL,1,1331.4,DD3,2CF,DD3_2CF,DD,2,CF,Co,0,0,1,0,0,0,0,0
DD3-2DE-E,E,POHY,1,214,DD3,2DE,DD3_2DE,DD,2,DE,Co,0,0,0,1,0,0,0,0
DD3-2DF-F,F,PRCL,1,602.3,DD3,2DF,DD3_2DF,DD,2,DF,Co,0,0,0,1,0,0,0,0
DD3-2EF-E,E,POHY,1,214,DD3,2EF,DD3_2EF,DD,2,EF,Co,0,0,0,0,0,1,0,0
DD3-2EF-F,F,PRCL,1,1172.9,DD3,2EF,DD3_2EF,DD,2,EF,Co,0,0,0,0,1,0,0,0
DD3-2EG-E,E,POHY,1,321,DD3,2EG,DD3_2EG,DD,2,EG,Co,0,0,0,0,0,0,1,0
DD3-2EH-E,E,POHY,1,214,DD3,2EH,DD3_2EH,DD,2,EH,Co,0,0,0,0,0,0,0,1
DD3-2FG-F,F,PRCL,1,317,DD3,2FG,DD3_2FG,DD,2,FG,Co,0,0,0,0,0,0,1,0
DD3-2FH-F,F,PRCL,1,570.6,DD3,2FH,DD3_2FH,DD,2,FH,Co,0,0,0,0,0,0,0,1
DD3-4E-E1,E,POHY,1,214,DD3,4E,DD3_4E,DD,4,E,Mono,0,0,0,0,3,0,0,0
DD3-4E-E2,E,POHY,1,428,DD3,4E,DD3_4E,DD,4,E,Mono,0,0,0,0,3,0,0,0
DD3-4E-E3,E,POHY,1,321,DD3,4E,DD3_4E,DD,4,E,Mono,0,0,0,0,3,0,0,0
DD3-4E-E4,E,POHY,1,428,DD3,4E,DD3_4E,DD,4,E,Mono,0,0,0,0,3,0,0,0
DD3-4F-F1,F,PRCL,1,317,DD3,4F,DD3_4F,DD,4,F,Mono,0,0,0,0,0,3,0,0
DD3-4F-F2,F,PRCL,1,507.2,DD3,4F,DD3_4F,DD,4,F,Mono,0,0,0,0,0,3,0,0
DD3-4F-F3,F,PRCL,1,253.6,DD3,4F,DD3_4F,DD,4,F,Mono,0,0,0,0,0,3,0,0
DD3-4F-F4,F,PRCL,1,285.3,DD3,4F,DD3_4F,DD,4,F,Mono,0,0,0,0,0,3,0,0
DD3-4AE-E1,E,POHY,1,214,DD3,4AE,DD3_4AE,DD,4,AE,Co,2,0,0,0,1,0,0,0
DD3-4AE-E2,E,POHY,1,214,DD3,4AE,DD3_4AE,DD,4,AE,Co,2,0,0,0,1,0,0,0
DD3-4AF-F1,F,PRCL,1,158.5,DD3,4AF,DD3_4AF,DD,4,AF,Co,2,0,0,0,0,1,0,0
DD3-4AF-F2,F,PRCL,1,190.2,DD3,4AF,DD3_4AF,DD,4,AF,Co,2,0,0,0,0,1,0,0
DD3-4BE-E1,E,POHY,1,214,DD3,4BE,DD3_4BE,DD,4,BE,Co,0,2,0,0,1,0,0,0
DD3-4BE-E2,E,POHY,1,321,DD3,4BE,DD3_4BE,DD,4,BE,Co,0,2,0,0,1,0,0,0
DD3-4BF-F1,F,PRCL,1,475.5,DD3,4BF,DD3_4BF,DD,4,BF,Co,0,2,0,0,0,1,0,0
DD3-4BF-F2,F,PRCL,1,602.3,DD3,4BF,DD3_4BF,DD,4,BF,Co,0,2,0,0,0,1,0,0
DD3-4CE-E1,E,POHY,1,321,DD3,4CE,DD3_4CE,DD,4,CE,Co,0,0,2,0,1,0,0,0
DD3-4CE-E2,E,POHY,1,214,DD3,4CE,DD3_4CE,DD,4,CE,Co,0,0,2,0,1,0,0,0
DD3-4CF-F1,F,PRCL,1,285.3,DD3,4CF,DD3_4CF,DD,4,CF,Co,0,0,2,0,0,1,0,0
DD3-4CF-F2,F,PRCL,1,919.3,DD3,4CF,DD3_4CF,DD,4,CF,Co,0,0,2,0,0,1,0,0
DD3-4DE-E1,E,POHY,1,107,DD3,4DE,DD3_4DE,DD,4,DE,Co,0,0,0,2,1,0,0,0
DD3-4DE-E2,E,POHY,1,214,DD3,4DE,DD3_4DE,DD,4,DE,Co,0,0,0,2,1,0,0,0
DD3-4DF-F1,F,PRCL,1,221.9,DD3,4DF,DD3_4DF,DD,4,DF,Co,0,0,0,2,0,1,0,0
DD3-4DF-F2,F,PRCL,1,317,DD3,4DF,DD3_4DF,DD,4,DF,Co,0,0,0,2,0,1,0,0
DD3-4EF-E1,E,POHY,1,214,DD3,4EF,DD3_4EF,DD,4,EF,Co,0,0,0,0,1,2,0,0
DD3-4EF-E2,E,POHY,1,321,DD3,4EF,DD3_4EF,DD,4,EF,Co,0,0,0,0,1,2,0,0
DD3-4EF-F1,F,PRCL,1,538.9,DD3,4EF,DD3_4EF,DD,4,EF,Co,0,0,0,0,2,1,0,0
DD3-4EF-F2,F,PRCL,1,602.3,DD3,4EF,DD3_4EF,DD,4,EF,Co,0,0,0,0,2,1,0,0
DD3-4EG-E1,E,POHY,1,107,DD3,4EG,DD3_4EG,DD,4,EG,Co,0,0,0,0,1,0,2,0
DD3-4EG-E2,E,POHY,1,214,DD3,4EG,DD3_4EG,DD,4,EG,Co,0,0,0,0,1,0,2,0
DD3-4EH-E1,E,POHY,1,214,DD3,4EH,DD3_4EH,DD,4,EH,Co,0,0,0,0,1,0,0,2
DD3-4EH-E2,E,POHY,1,107,DD3,4EH,DD3_4EH,DD,4,EH,Co,0,0,0,0,1,0,0,2
DD3-4FG-F1,F,PRCL,1,158.5,DD3,4FG,DD3_4FG,DD,4,FG,Co,0,0,0,0,0,1,2,0
DD3-4FG-F2,F,PRCL,0,0,DD3,4FG,DD3_4FG,DD,4,FG,Co,0,0,0,0,0,1,2,0
DD3-4FH-F1,F,PRCL,1,158.5,DD3,4FH,DD3_4FH,DD,4,FH,Co,0,0,0,0,0,1,0,2
DD3-4FH-F2,F,PRCL,1,95.1,DD3,4FH,DD3_4FH,DD,4,FH,Co,0,0,0,0,0,1,0,2
DD3-8E-E1,E,POHY,1,107,DD3,8E,DD3_8E,DD,8,E,Mono,0,0,0,0,7,0,0,0
DD3-8E-E2,E,POHY,1,107,DD3,8E,DD3_8E,DD,8,E,Mono,0,0,0,0,7,0,0,0
DD3-8E-E3,E,POHY,1,428,DD3,8E,DD3_8E,DD,8,E,Mono,0,0,0,0,7,0,0,0
DD3-8E-E4,E,POHY,1,214,DD3,8E,DD3_8E,DD,8,E,Mono,0,0,0,0,7,0,0,0
DD3-8E-E5,E,POHY,1,214,DD3,8E,DD3_8E,DD,8,E,Mono,0,0,0,0,7,0,0,0
DD3-8E-E6,E,POHY,1,214,DD3,8E,DD3_8E,DD,8,E,Mono,0,0,0,0,7,0,0,0
DD3-8E-E7,E,POHY,1,214,DD3,8E,DD3_8E,DD,8,E,Mono,0,0,0,0,7,0,0,0
DD3-8E-E8,E,POHY,1,214,DD3,8E,DD3_8E,DD,8,E,Mono,0,0,0,0,7,0,0,0
DD3-8F-F1,F,PRCL,0,0,DD3,8F,DD3_8F,DD,8,F,Mono,0,0,0,0,0,7,0,0
DD3-8F-F2,F,PRCL,1,317,DD3,8F,DD3_8F,DD,8,F,Mono,0,0,0,0,0,7,0,0
DD3-8F-F3,F,PRCL,1,126.8,DD3,8F,DD3_8F,DD,8,F,Mono,0,0,0,0,0,7,0,0
DD3-8F-F4,F,PRCL,0,0,DD3,8F,DD3_8F,DD,8,F,Mono,0,0,0,0,0,7,0,0
DD3-8F-F5,F,PRCL,1,126.8,DD3,8F,DD3_8F,DD,8,F,Mono,0,0,0,0,0,7,0,0
DD3-8F-F6,F,PRCL,1,158.5,DD3,8F,DD3_8F,DD,8,F,Mono,0,0,0,0,0,7,0,0
DD3-8F-F7,F,PRCL,1,158.5,DD3,8F,DD3_8F,DD,8,F,Mono,0,0,0,0,0,7,0,0
DD3-8F-F8,F,PRCL,1,158.5,DD3,8F,DD3_8F,DD,8,F,Mono,0,0,0,0,0,7,0,0
DD3-8AE-E1,E,POHY,1,214,DD3,8AE,DD3_8AE,DD,8,AE,Co,4,0,0,0,2,0,0,1
DD3-8AE-E2,E,POHY,1,107,DD3,8AE,DD3_8AE,DD,8,AE,Co,4,0,0,0,2,0,0,1
DD3-8AE-E3,E,POHY,1,0,DD3,8AE,DD3_8AE,DD,8,AE,Co,4,0,0,0,2,0,0,1
DD3-8AF-F1,F,PRCL,1,63.4,DD3,8AF,DD3_8AF,DD,8,AF,Co,4,0,0,0,0,3,0,0
DD3-8AF-F2,F,PRCL,1,95.1,DD3,8AF,DD3_8AF,DD,8,AF,Co,4,0,0,0,0,3,0,0
DD3-8AF-F3,F,PRCL,1,126.8,DD3,8AF,DD3_8AF,DD,8,AF,Co,4,0,0,0,0,3,0,0
DD3-8AF-F4,F,PRCL,1,31.7,DD3,8AF,DD3_8AF,DD,8,AF,Co,4,0,0,0,0,3,0,0
DD3-8BE-E1,E,POHY,1,214,DD3,8BE,DD3_8BE,DD,8,BE,Co,0,4,0,0,3,0,0,0
DD3-8BE-E2,E,POHY,1,107,DD3,8BE,DD3_8BE,DD,8,BE,Co,0,4,0,0,3,0,0,0
DD3-8BE-E3,E,POHY,1,214,DD3,8BE,DD3_8BE,DD,8,BE,Co,0,4,0,0,3,0,0,0
DD3-8BE-E4,E,POHY,1,214,DD3,8BE,DD3_8BE,DD,8,BE,Co,0,4,0,0,3,0,0,0
DD3-8BF-F1,F,PRCL,1,253.6,DD3,8BF,DD3_8BF,DD,8,BF,Co,0,4,0,0,0,3,0,0
DD3-8BF-F2,F,PRCL,1,253.6,DD3,8BF,DD3_8BF,DD,8,BF,Co,0,4,0,0,0,3,0,0
DD3-8BF-F3,F,PRCL,1,380.4,DD3,8BF,DD3_8BF,DD,8,BF,Co,0,4,0,0,0,3,0,0
DD3-8BF-F4,F,PRCL,1,253.6,DD3,8BF,DD3_8BF,DD,8,BF,Co,0,4,0,0,0,3,0,0
DD3-8CE-E1,E,POHY,1,214,DD3,8CE,DD3_8CE,DD,8,CE,Co,0,0,4,0,3,0,0,0
DD3-8CE-E2,E,POHY,1,321,DD3,8CE,DD3_8CE,DD,8,CE,Co,0,0,4,0,3,0,0,0
DD3-8CE-E3,E,POHY,1,214,DD3,8CE,DD3_8CE,DD,8,CE,Co,0,0,4,0,3,0,0,0
DD3-8CE-E4,E,POHY,1,107,DD3,8CE,DD3_8CE,DD,8,CE,Co,0,0,4,0,3,0,0,0
DD3-8CF-F1,F,PRCL,1,221.9,DD3,8CF,DD3_8CF,DD,8,CF,Co,0,0,4,0,0,3,0,0
DD3-8CF-F2,F,PRCL,1,348.7,DD3,8CF,DD3_8CF,DD,8,CF,Co,0,0,4,0,0,3,0,0
DD3-8CF-F3,F,PRCL,1,507.2,DD3,8CF,DD3_8CF,DD,8,CF,Co,0,0,4,0,0,3,0,0
DD3-8CF-F4,F,PRCL,0,0,DD3,8CF,DD3_8CF,DD,8,CF,Co,0,0,4,0,0,3,0,0
DD3-8DE-E1,E,POHY,1,107,DD3,8DE,DD3_8DE,DD,8,DE,Co,0,0,0,4,3,0,0,0
DD3-8DE-E2,E,POHY,1,0,DD3,8DE,DD3_8DE,DD,8,DE,Co,0,0,0,4,3,0,0,0
DD3-8DE-E3,E,POHY,1,0,DD3,8DE,DD3_8DE,DD,8,DE,Co,0,0,0,4,3,0,0,0
DD3-8DE-E4,E,POHY,1,0,DD3,8DE,DD3_8DE,DD,8,DE,Co,0,0,0,4,3,0,0,0
DD3-8DF-F1,F,PRCL,1,31.7,DD3,8DF,DD3_8DF,DD,8,DF,Co,0,0,0,4,0,3,0,0
DD3-8DF-F2,F,PRCL,1,31.7,DD3,8DF,DD3_8DF,DD,8,DF,Co,0,0,0,4,0,3,0,0
DD3-8DF-F3,F,PRCL,1,31.7,DD3,8DF,DD3_8DF,DD,8,DF,Co,0,0,0,4,0,3,0,0
DD3-8DF-F4,F,PRCL,1,158.5,DD3,8DF,DD3_8DF,DD,8,DF,Co,0,0,0,4,0,3,0,0
DD3-8EF-E1,E,POHY,1,214,DD3,8EF,DD3_8EF,DD,8,EF,Co,0,0,0,0,3,4,0,0
DD3-8EF-E2,E,POHY,1,0,DD3,8EF,DD3_8EF,DD,8,EF,Co,0,0,0,0,3,4,0,0
DD3-8EF-E3,E,POHY,1,214,DD3,8EF,DD3_8EF,DD,8,EF,Co,0,0,0,0,3,4,0,0
DD3-8EF-E4,E,POHY,1,107,DD3,8EF,DD3_8EF,DD,8,EF,Co,0,0,0,0,3,4,0,0
DD3-8EF-F1,F,PRCL,1,507.2,DD3,8EF,DD3_8EF,DD,8,EF,Co,0,0,0,0,4,3,0,0
DD3-8EF-F2,F,PRCL,1,95.1,DD3,8EF,DD3_8EF,DD,8,EF,Co,0,0,0,0,4,3,0,0
DD3-8EF-F3,F,PRCL,1,317,DD3,8EF,DD3_8EF,DD,8,EF,Co,0,0,0,0,4,3,0,0
DD3-8EF-F4,F,PRCL,1,0,DD3,8EF,DD3_8EF,DD,8,EF,Co,0,0,0,0,4,3,0,0
DD3-8EG-E1,E,POHY,0,0,DD3,8EG,DD3_8EG,DD,8,EG,Co,0,0,0,0,3,0,4,0
DD3-8EG-E2,E,POHY,0,0,DD3,8EG,DD3_8EG,DD,8,EG,Co,0,0,0,0,3,0,4,0
DD3-8EG-E3,E,POHY,0,0,DD3,8EG,DD3_8EG,DD,8,EG,Co,0,0,0,0,3,0,4,0
DD3-8EG-E4,E,POHY,0,0,DD3,8EG,DD3_8EG,DD,8,EG,Co,0,0,0,0,3,0,4,0
DD3-8EH-E1,E,POHY,1,0,DD3,8EH,DD3_8EH,DD,8,EH,Co,0,0,0,0,3,0,0,4
DD3-8EH-E2,E,POHY,1,107,DD3,8EH,DD3_8EH,DD,8,EH,Co,0,0,0,0,3,0,0,4
DD3-8EH-E3,E,POHY,1,107,DD3,8EH,DD3_8EH,DD,8,EH,Co,0,0,0,0,3,0,0,4
DD3-8EH-E4,E,POHY,1,107,DD3,8EH,DD3_8EH,DD,8,EH,Co,0,0,0,0,3,0,0,4
DD3-8FG-F1,F,PRCL,1,158.5,DD3,8FG,DD3_8FG,DD,8,FG,Co,0,0,0,0,0,3,4,0
DD3-8FG-F2,F,PRCL,1,158.5,DD3,8FG,DD3_8FG,DD,8,FG,Co,0,0,0,0,0,3,4,0
DD3-8FG-F3,F,PRCL,1,126.8,DD3,8FG,DD3_8FG,DD,8,FG,Co,0,0,0,0,0,3,4,0
DD3-8FG-F4,F,PRCL,1,126.8,DD3,8FG,DD3_8FG,DD,8,FG,Co,0,0,0,0,0,3,4,0
DD3-8FH-F1,F,PRCL,0,0,DD3,8FH,DD3_8FH,DD,8,FH,Co,0,0,0,0,0,3,0,4
DD3-8FH-F2,F,PRCL,1,158.5,DD3,8FH,DD3_8FH,DD,8,FH,Co,0,0,0,0,0,3,0,4
DD3-8FH-F3,F,PRCL,1,95.1,DD3,8FH,DD3_8FH,DD,8,FH,Co,0,0,0,0,0,3,0,4
DD3-8FH-F4,F,PRCL,1,0,DD3,8FH,DD3_8FH,DD,8,FH,Co,0,0,0,0,0,3,0,4
DD4-2E-E1,E,POHY,1,856,DD4,2E,DD4_2E,DD,2,E,Mono,0,0,0,0,1,0,0,0
DD4-2E-E2,E,POHY,1,856,DD4,2E,DD4_2E,DD,2,E,Mono,0,0,0,0,1,0,0,0
DD4-2F-F1,F,PRCL,1,1299.7,DD4,2F,DD4_2F,DD,2,F,Mono,0,0,0,0,0,1,0,0
DD4-2F-F2,F,PRCL,1,570.6,DD4,2F,DD4_2F,DD,2,F,Mono,0,0,0,0,0,1,0,0
DD4-2AE-E,E,POHY,1,214,DD4,2AE,DD4_2AE,DD,2,AE,Co,1,0,0,0,0,0,0,0
DD4-2AF-F,F,PRCL,1,602.3,DD4,2AF,DD4_2AF,DD,2,AF,Co,1,0,0,0,0,0,0,0
DD4-2BE-E,E,POHY,1,321,DD4,2BE,DD4_2BE,DD,2,BE,Co,0,1,0,0,0,0,0,0
DD4-2BF-F,F,PRCL,1,1553.3,DD4,2BF,DD4_2BF,DD,2,BF,Co,0,1,0,0,0,0,0,0
DD4-2CE-E,E,POHY,1,428,DD4,2CE,DD4_2CE,DD,2,CE,Co,0,0,1,0,0,0,0,0
DD4-2CF-F,F,PRCL,1,1236.3,DD4,2CF,DD4_2CF,DD,2,CF,Co,0,0,1,0,0,0,0,0
DD4-2DE-E,E,POHY,1,107,DD4,2DE,DD4_2DE,DD,2,DE,Co,0,0,0,1,0,0,0,0
DD4-2DF-F,F,PRCL,1,1458.2,DD4,2DF,DD4_2DF,DD,2,DF,Co,0,0,0,1,0,0,0,0
DD4-2EF-E,E,POHY,1,856,DD4,2EF,DD4_2EF,DD,2,EF,Co,0,0,0,0,0,1,0,0
DD4-2EF-F,F,PRCL,1,0,DD4,2EF,DD4_2EF,DD,2,EF,Co,0,0,0,0,1,0,0,0
DD4-2EG-E,E,POHY,1,428,DD4,2EG,DD4_2EG,DD,2,EG,Co,0,0,0,0,0,0,1,0
DD4-2EH-E,E,POHY,1,214,DD4,2EH,DD4_2EH,DD,2,EH,Co,0,0,0,0,0,0,0,1
DD4-2FG-F,F,PRCL,1,412.1,DD4,2FG,DD4_2FG,DD,2,FG,Co,0,0,0,0,0,0,1,0
DD4-2FH-F,F,PRCL,1,190.2,DD4,2FH,DD4_2FH,DD,2,FH,Co,0,0,0,0,0,0,0,1
DD4-4E-E1,E,POHY,1,321,DD4,4E,DD4_4E,DD,4,E,Mono,0,0,0,0,3,0,0,0
DD4-4E-E2,E,POHY,1,749,DD4,4E,DD4_4E,DD,4,E,Mono,0,0,0,0,3,0,0,0
DD4-4E-E3,E,POHY,1,642,DD4,4E,DD4_4E,DD,4,E,Mono,0,0,0,0,3,0,0,0
DD4-4E-E4,E,POHY,1,321,DD4,4E,DD4_4E,DD,4,E,Mono,0,0,0,0,3,0,0,0
DD4-4F-F1,F,PRCL,0,0,DD4,4F,DD4_4F,DD,4,F,Mono,0,0,0,0,0,3,0,0
DD4-4F-F2,F,PRCL,1,253.6,DD4,4F,DD4_4F,DD,4,F,Mono,0,0,0,0,0,3,0,0
DD4-4F-F3,F,PRCL,1,380.4,DD4,4F,DD4_4F,DD,4,F,Mono,0,0,0,0,0,3,0,0
DD4-4F-F4,F,PRCL,1,285.3,DD4,4F,DD4_4F,DD,4,F,Mono,0,0,0,0,0,3,0,0
DD4-4AE-E1,E,POHY,1,642,DD4,4AE,DD4_4AE,DD,4,AE,Co,2,0,0,0,1,0,0,0
DD4-4AE-E2,E,POHY,1,642,DD4,4AE,DD4_4AE,DD,4,AE,Co,2,0,0,0,1,0,0,0
DD4-4AF-F1,F,PRCL,1,253.6,DD4,4AF,DD4_4AF,DD,4,AF,Co,2,0,0,0,0,1,0,0
DD4-4AF-F2,F,PRCL,1,221.9,DD4,4AF,DD4_4AF,DD,4,AF,Co,2,0,0,0,0,1,0,0
DD4-4BE-E1,E,POHY,1,856,DD4,4BE,DD4_4BE,DD,4,BE,Co,0,2,0,0,1,0,0,0
DD4-4BE-E2,E,POHY,1,535,DD4,4BE,DD4_4BE,DD,4,BE,Co,0,2,0,0,1,0,0,0
DD4-4BF-F1,F,PRCL,1,317,DD4,4BF,DD4_4BF,DD,4,BF,Co,0,2,0,0,0,1,0,0
DD4-4BF-F2,F,PRCL,1,634,DD4,4BF,DD4_4BF,DD,4,BF,Co,0,2,0,0,0,1,0,0
DD4-4CE-E1,E,POHY,1,535,DD4,4CE,DD4_4CE,DD,4,CE,Co,0,0,2,0,1,0,0,0
DD4-4CE-E2,E,POHY,1,214,DD4,4CE,DD4_4CE,DD,4,CE,Co,0,0,2,0,1,0,0,0
DD4-4CF-F1,F,PRCL,1,697.4,DD4,4CF,DD4_4CF,DD,4,CF,Co,0,0,2,0,0,1,0,0
DD4-4CF-F2,F,PRCL,1,887.6,DD4,4CF,DD4_4CF,DD,4,CF,Co,0,0,2,0,0,1,0,0
DD4-4DE-E1,E,POHY,0,0,DD4,4DE,DD4_4DE,DD,4,DE,Co,0,0,0,2,1,0,0,0
DD4-4DE-E2,E,POHY,0,0,DD4,4DE,DD4_4DE,DD,4,DE,Co,0,0,0,2,1,0,0,0
DD4-4DF-F1,F,PRCL,1,348.7,DD4,4DF,DD4_4DF,DD,4,DF,Co,0,0,0,2,0,1,0,0
DD4-4DF-F2,F,PRCL,1,317,DD4,4DF,DD4_4DF,DD,4,DF,Co,0,0,0,2,0,1,0,0
DD4-4EF-E1,E,POHY,1,428,DD4,4EF,DD4_4EF,DD,4,EF,Co,0,0,0,0,1,2,0,0
DD4-4EF-E2,E,POHY,1,321,DD4,4EF,DD4_4EF,DD,4,EF,Co,0,0,0,0,1,2,0,0
DD4-4EF-F1,F,PRCL,1,285.3,DD4,4EF,DD4_4EF,DD,4,EF,Co,0,0,0,0,2,1,0,0
DD4-4EF-F2,F,PRCL,1,919.3,DD4,4EF,DD4_4EF,DD,4,EF,Co,0,0,0,0,2,1,0,0
DD4-4EG-E1,E,POHY,1,428,DD4,4EG,DD4_4EG,DD,4,EG,Co,0,0,0,0,1,0,2,0
DD4-4EG-E2,E,POHY,1,321,DD4,4EG,DD4_4EG,DD,4,EG,Co,0,0,0,0,1,0,2,0
DD4-4EH-E1,E,POHY,1,0,DD4,4EH,DD4_4EH,DD,4,EH,Co,0,0,0,0,1,0,0,2
DD4-4EH-E2,E,POHY,1,0,DD4,4EH,DD4_4EH,DD,4,EH,Co,0,0,0,0,1,0,0,2
DD4-4FG-F1,F,PRCL,1,412.1,DD4,4FG,DD4_4FG,DD,4,FG,Co,0,0,0,0,0,1,2,0
DD4-4FG-F2,F,PRCL,1,0,DD4,4FG,DD4_4FG,DD,4,FG,Co,0,0,0,0,0,1,2,0
DD4-4FH-F1,F,PRCL,1,0,DD4,4FH,DD4_4FH,DD,4,FH,Co,0,0,0,0,0,1,0,2
DD4-4FH-F2,F,PRCL,1,31.7,DD4,4FH,DD4_4FH,DD,4,FH,Co,0,0,0,0,0,1,0,2
DD4-8E-E1,E,POHY,0,0,DD4,8E,DD4_8E,DD,8,E,Mono,0,0,0,0,7,0,0,0
DD4-8E-E2,E,POHY,0,0,DD4,8E,DD4_8E,DD,8,E,Mono,0,0,0,0,7,0,0,0
DD4-8E-E3,E,POHY,0,0,DD4,8E,DD4_8E,DD,8,E,Mono,0,0,0,0,7,0,0,0
DD4-8E-E4,E,POHY,0,0,DD4,8E,DD4_8E,DD,8,E,Mono,0,0,0,0,7,0,0,0
DD4-8E-E5,E,POHY,0,0,DD4,8E,DD4_8E,DD,8,E,Mono,0,0,0,0,7,0,0,0
DD4-8E-E6,E,POHY,0,0,DD4,8E,DD4_8E,DD,8,E,Mono,0,0,0,0,7,0,0,0
DD4-8E-E7,E,POHY,0,0,DD4,8E,DD4_8E,DD,8,E,Mono,0,0,0,0,7,0,0,0
DD4-8E-E8,E,POHY,0,0,DD4,8E,DD4_8E,DD,8,E,Mono,0,0,0,0,7,0,0,0
DD4-8F-F1,F,PRCL,1,253.6,DD4,8F,DD4_8F,DD,8,F,Mono,0,0,0,0,0,7,0,0
DD4-8F-F2,F,PRCL,1,0,DD4,8F,DD4_8F,DD,8,F,Mono,0,0,0,0,0,7,0,0
DD4-8F-F3,F,PRCL,1,190.2,DD4,8F,DD4_8F,DD,8,F,Mono,0,0,0,0,0,7,0,0
DD4-8F-F4,F,PRCL,1,285.3,DD4,8F,DD4_8F,DD,8,F,Mono,0,0,0,0,0,7,0,0
DD4-8F-F5,F,PRCL,1,348.7,DD4,8F,DD4_8F,DD,8,F,Mono,0,0,0,0,0,7,0,0
DD4-8F-F6,F,PRCL,1,126.8,DD4,8F,DD4_8F,DD,8,F,Mono,0,0,0,0,0,7,0,0
DD4-8F-F7,F,PRCL,1,31.7,DD4,8F,DD4_8F,DD,8,F,Mono,0,0,0,0,0,7,0,0
DD4-8F-F8,F,PRCL,1,348.7,DD4,8F,DD4_8F,DD,8,F,Mono,0,0,0,0,0,7,0,0
DD4-8AE-E1,E,POHY,0,0,DD4,8AE,DD4_8AE,DD,8,AE,Co,4,0,0,0,3,0,0,0
DD4-8AE-E2,E,POHY,0,0,DD4,8AE,DD4_8AE,DD,8,AE,Co,4,0,0,0,3,0,0,0
DD4-8AE-E3,E,POHY,0,0,DD4,8AE,DD4_8AE,DD,8,AE,Co,4,0,0,0,3,0,0,0
DD4-8AE-E4,E,POHY,0,0,DD4,8AE,DD4_8AE,DD,8,AE,Co,4,0,0,0,3,0,0,0
DD4-8AF-F1,F,PRCL,0,0,DD4,8AF,DD4_8AF,DD,8,AF,Co,4,0,0,0,0,3,0,0
DD4-8AF-F2,F,PRCL,0,0,DD4,8AF,DD4_8AF,DD,8,AF,Co,4,0,0,0,0,3,0,0
DD4-8AF-F3,F,PRCL,0,0,DD4,8AF,DD4_8AF,DD,8,AF,Co,4,0,0,0,0,3,0,0
DD4-8AF-F4,F,PRCL,0,0,DD4,8AF,DD4_8AF,DD,8,AF,Co,4,0,0,0,0,3,0,0
DD4-8BE-E1,E,POHY,1,321,DD4,8BE,DD4_8BE,DD,8,BE,Co,0,4,0,0,3,0,0,0
DD4-8BE-E2,E,POHY,1,321,DD4,8BE,DD4_8BE,DD,8,BE,Co,0,4,0,0,3,0,0,0
DD4-8BE-E3,E,POHY,1,107,DD4,8BE,DD4_8BE,DD,8,BE,Co,0,4,0,0,3,0,0,0
DD4-8BE-E4,E,POHY,1,0,DD4,8BE,DD4_8BE,DD,8,BE,Co,0,4,0,0,3,0,0,0
DD4-8BF-F1,F,PRCL,0,0,DD4,8BF,DD4_8BF,DD,8,BF,Co,0,4,0,0,0,3,0,0
DD4-8BF-F2,F,PRCL,0,0,DD4,8BF,DD4_8BF,DD,8,BF,Co,0,4,0,0,0,3,0,0
DD4-8BF-F3,F,PRCL,0,0,DD4,8BF,DD4_8BF,DD,8,BF,Co,0,4,0,0,0,3,0,0
DD4-8BF-F4,F,PRCL,1,158.5,DD4,8BF,DD4_8BF,DD,8,BF,Co,0,4,0,0,0,3,0,0
DD4-8CE-E1,E,POHY,1,642,DD4,8CE,DD4_8CE,DD,8,CE,Co,0,0,4,0,3,0,0,0
DD4-8CE-E2,E,POHY,1,2568,DD4,8CE,DD4_8CE,DD,8,CE,Co,0,0,4,0,3,0,0,0
DD4-8CE-E3,E,POHY,1,428,DD4,8CE,DD4_8CE,DD,8,CE,Co,0,0,4,0,3,0,0,0
DD4-8CE-E4,E,POHY,1,428,DD4,8CE,DD4_8CE,DD,8,CE,Co,0,0,4,0,3,0,0,0
DD4-8CF-F1,F,PRCL,0,0,DD4,8CF,DD4_8CF,DD,8,CF,Co,0,0,4,0,0,3,0,0
DD4-8CF-F2,F,PRCL,0,0,DD4,8CF,DD4_8CF,DD,8,CF,Co,0,0,4,0,0,3,0,0
DD4-8CF-F3,F,PRCL,0,0,DD4,8CF,DD4_8CF,DD,8,CF,Co,0,0,4,0,0,3,0,0
DD4-8CF-F4,F,PRCL,0,0,DD4,8CF,DD4_8CF,DD,8,CF,Co,0,0,4,0,0,3,0,0
DD4-8DE-E1,E,POHY,1,214,DD4,8DE,DD4_8DE,DD,8,DE,Co,0,0,0,4,3,0,0,0
DD4-8DE-E2,E,POHY,1,214,DD4,8DE,DD4_8DE,DD,8,DE,Co,0,0,0,4,3,0,0,0
DD4-8DE-E3,E,POHY,1,214,DD4,8DE,DD4_8DE,DD,8,DE,Co,0,0,0,4,3,0,0,0
DD4-8DE-E4,E,POHY,1,214,DD4,8DE,DD4_8DE,DD,8,DE,Co,0,0,0,4,3,0,0,0
DD4-8DF-F1,F,PRCL,0,0,DD4,8DF,DD4_8DF,DD,8,DF,Co,0,0,0,4,0,3,0,0
DD4-8DF-F2,F,PRCL,0,0,DD4,8DF,DD4_8DF,DD,8,DF,Co,0,0,0,4,0,3,0,0
DD4-8DF-F3,F,PRCL,0,0,DD4,8DF,DD4_8DF,DD,8,DF,Co,0,0,0,4,0,3,0,0
DD4-8DF-F4,F,PRCL,0,0,DD4,8DF,DD4_8DF,DD,8,DF,Co,0,0,0,4,0,3,0,0
DD4-8EF-E1,E,POHY,1,321,DD4,8EF,DD4_8EF,DD,8,EF,Co,0,0,0,0,3,4,0,0